unknown system                          
   1.00000000000000     
     5.352363    0.000000    0.000000
     0.000000    5.352363    0.000000
     0.000000    0.000000    5.352363
   Si
     8
Direct
  0.000000  0.000000  0.000000
  0.000000  0.500000  0.500000
  0.500000  0.000000  0.500000
  0.500000  0.500000  0.000000
  0.250000  0.250000  0.250000
  0.250000  0.750000  0.750000
  0.750000  0.250000  0.750000
  0.750000  0.750000  0.250000
 
   48   48   48
 -29.261     -23.430     -7.7016      13.372      34.253      50.327      59.120      60.536      56.347      49.250    
  41.540      34.128      27.504      21.914      17.390      13.825      11.053      8.9090      7.2634      6.0193    
  5.1036      4.4581      4.0356      3.7990      3.7232      3.7990      4.0356      4.4581      5.1036      6.0193    
  7.2634      8.9090      11.053      13.825      17.390      21.914      27.504      34.128      41.540      49.250    
  56.347      60.536      59.120      50.327      34.253      13.372     -7.7016     -23.430     -23.430     -17.869    
 -2.8854      17.138      36.879      51.918      59.909      60.808      56.365      49.213      41.518      34.135    
  27.542      21.976      17.468      13.911      11.142      8.9977      7.3505      6.1042      5.1861      4.5382    
  4.1134      3.8753      3.7990      3.8753      4.1134      4.5382      5.1861      6.1042      7.3505      8.9977    
  11.142      13.911      17.468      21.976      27.542      34.135      41.518      49.213      56.365      60.808    
  59.909      51.918      36.879      17.138     -2.8854     -17.869     -7.7016     -2.8854      10.045      27.181    
  43.799      56.020      61.851      61.382      56.304      49.049      41.419      34.136      27.643      22.157    
  17.700      14.171      11.411      9.2684      7.6175      6.3656      5.4411      4.7865      4.3557      4.1134    
  4.0356      4.1134      4.3557      4.7865      5.4411      6.3656      7.6175      9.2684      11.411      14.171    
  17.700      22.157      27.643      34.136      41.419      49.049      56.304      61.382      61.851      56.020    
  43.799      27.181      10.045     -2.8854      13.372      17.138      27.181      40.278      52.566      60.929    
  63.873      61.664      55.885      48.629      41.165      34.084      27.779      22.439      18.079      14.605    
  11.870      9.7339      8.0808      6.8226      5.8896      5.2257      4.7865      4.5382      4.4581      4.5382    
  4.7865      5.2257      5.8896      6.8226      8.0808      9.7339      11.870      14.605      18.079      22.439    
  27.779      34.084      41.165      48.629      55.885      61.664      63.873      60.929      52.566      40.278    
  27.181      17.138      34.253      36.879      43.799      52.566      60.276      64.663      64.768      61.020    
  54.846      47.803      40.659      33.917      27.911      22.801      18.598      15.217      12.531      10.415    
  8.7662      7.5041      6.5631      5.8896      5.4411      5.1861      5.1036      5.1861      5.4411      5.8896    
  6.5631      7.5041      8.7662      10.415      12.531      15.217      18.598      22.801      27.911      33.917    
  40.659      47.803      54.846      61.020      64.768      64.663      60.276      52.566      43.799      36.879    
  50.327      51.918      56.020      60.929      64.663      65.753      63.719      59.098      53.058      46.462    
  39.831      33.585      28.005      23.223      19.249      16.013      13.411      11.338      9.7081      8.4496    
  7.5041      6.8226      6.3656      6.1042      6.0193      6.1042      6.3656      6.8226      7.5041      8.4496    
  9.7081      11.338      13.411      16.013      19.249      23.223      28.005      33.585      39.831      46.462    
  53.058      59.098      63.719      65.753      64.663      60.929      56.020      51.918      59.120      59.909    
  61.851      63.873      64.768      63.719      60.609      55.983      50.492      44.577      38.654      33.065    
  28.039      23.689      20.027      17.002      14.532      12.538      10.949      9.7081      8.7662      8.0808    
  7.6175      7.3505      7.2634      7.3505      7.6175      8.0808      8.7662      9.7081      10.949      12.538    
  14.532      17.002      20.027      23.689      28.039      33.065      38.654      44.577      50.492      55.983    
  60.609      63.719      64.768      63.873      61.851      59.909      60.536      60.808      61.382      61.664    
  61.020      59.098      55.983      51.940      47.237      42.199      37.150      32.356      28.005      24.191    
  20.931      18.193      15.919      14.050      12.538      11.338      10.415      9.7339      9.2684      8.9977    
  8.9090      8.9977      9.2684      9.7339      10.415      11.338      12.538      14.050      15.919      18.193    
  20.931      24.191      28.005      32.356      37.150      42.199      47.237      51.940      55.983      59.098    
  61.020      61.664      61.382      60.808      56.347      56.365      56.304      55.885      54.846      53.058    
  50.492      47.237      43.477      39.447      35.384      31.489      27.911      24.728      21.964      19.599    
  17.596      15.919      14.532      13.411      12.531      11.870      11.411      11.142      11.053      11.142    
  11.411      11.870      12.531      13.411      14.532      15.919      17.596      19.599      21.964      24.728    
  27.911      31.489      35.384      39.447      43.477      47.237      50.492      53.058      54.846      55.885    
  56.304      56.365      49.250      49.213      49.049      48.629      47.803      46.462      44.577      42.199    
  39.447      36.476      33.449      30.513      27.779      25.312      23.135      21.238      19.599      18.193    
  17.002      16.013      15.217      14.605      14.171      13.911      13.825      13.911      14.171      14.605    
  15.217      16.013      17.002      18.193      19.599      21.238      23.135      25.312      27.779      30.513    
  33.449      36.476      39.447      42.199      44.577      46.462      47.803      48.629      49.049      49.213    
  41.540      41.518      41.419      41.165      40.659      39.831      38.654      37.150      35.384      33.449    
  31.451      29.489      27.643      25.962      24.462      23.135      21.964      20.931      20.027      19.249    
  18.598      18.079      17.700      17.468      17.390      17.468      17.700      18.079      18.598      19.249    
  20.027      20.931      21.964      23.135      24.462      25.962      27.643      29.489      31.451      33.449    
  35.384      37.150      38.654      39.831      40.659      41.165      41.419      41.518      34.128      34.135    
  34.136      34.084      33.917      33.585      33.065      32.356      31.489      30.513      29.489      28.481    
  27.542      26.701      25.962      25.312      24.728      24.191      23.689      23.223      22.801      22.439    
  22.157      21.976      21.914      21.976      22.157      22.439      22.801      23.223      23.689      24.191    
  24.728      25.312      25.962      26.701      27.542      28.481      29.489      30.513      31.489      32.356    
  33.065      33.585      33.917      34.084      34.136      34.135      27.504      27.542      27.643      27.779    
  27.911      28.005      28.039      28.005      27.911      27.779      27.643      27.542      27.504      27.542    
  27.643      27.779      27.911      28.005      28.039      28.005      27.911      27.779      27.643      27.542    
  27.504      27.542      27.643      27.779      27.911      28.005      28.039      28.005      27.911      27.779    
  27.643      27.542      27.504      27.542      27.643      27.779      27.911      28.005      28.039      28.005    
  27.911      27.779      27.643      27.542      21.914      21.976      22.157      22.439      22.801      23.223    
  23.689      24.191      24.728      25.312      25.962      26.701      27.542      28.481      29.489      30.513    
  31.489      32.356      33.065      33.585      33.917      34.084      34.136      34.135      34.128      34.135    
  34.136      34.084      33.917      33.585      33.065      32.356      31.489      30.513      29.489      28.481    
  27.542      26.701      25.962      25.312      24.728      24.191      23.689      23.223      22.801      22.439    
  22.157      21.976      17.390      17.468      17.700      18.079      18.598      19.249      20.027      20.931    
  21.964      23.135      24.462      25.962      27.643      29.489      31.451      33.449      35.384      37.150    
  38.654      39.831      40.659      41.165      41.419      41.518      41.540      41.518      41.419      41.165    
  40.659      39.831      38.654      37.150      35.384      33.449      31.451      29.489      27.643      25.962    
  24.462      23.135      21.964      20.931      20.027      19.249      18.598      18.079      17.700      17.468    
  13.825      13.911      14.171      14.605      15.217      16.013      17.002      18.193      19.599      21.238    
  23.135      25.312      27.779      30.513      33.449      36.476      39.447      42.199      44.577      46.462    
  47.803      48.629      49.049      49.213      49.250      49.213      49.049      48.629      47.803      46.462    
  44.577      42.199      39.447      36.476      33.449      30.513      27.779      25.312      23.135      21.238    
  19.599      18.193      17.002      16.013      15.217      14.605      14.171      13.911      11.053      11.142    
  11.411      11.870      12.531      13.411      14.532      15.919      17.596      19.599      21.964      24.728    
  27.911      31.489      35.384      39.447      43.477      47.237      50.492      53.058      54.846      55.885    
  56.304      56.365      56.347      56.365      56.304      55.885      54.846      53.058      50.492      47.237    
  43.477      39.447      35.384      31.489      27.911      24.728      21.964      19.599      17.596      15.919    
  14.532      13.411      12.531      11.870      11.411      11.142      8.9090      8.9977      9.2684      9.7339    
  10.415      11.338      12.538      14.050      15.919      18.193      20.931      24.191      28.005      32.356    
  37.150      42.199      47.237      51.940      55.983      59.098      61.020      61.664      61.382      60.808    
  60.536      60.808      61.382      61.664      61.020      59.098      55.983      51.940      47.237      42.199    
  37.150      32.356      28.005      24.191      20.931      18.193      15.919      14.050      12.538      11.338    
  10.415      9.7339      9.2684      8.9977      7.2634      7.3505      7.6175      8.0808      8.7662      9.7081    
  10.949      12.538      14.532      17.002      20.027      23.689      28.039      33.065      38.654      44.577    
  50.492      55.983      60.609      63.719      64.768      63.873      61.851      59.909      59.120      59.909    
  61.851      63.873      64.768      63.719      60.609      55.983      50.492      44.577      38.654      33.065    
  28.039      23.689      20.027      17.002      14.532      12.538      10.949      9.7081      8.7662      8.0808    
  7.6175      7.3505      6.0193      6.1042      6.3656      6.8226      7.5041      8.4496      9.7081      11.338    
  13.411      16.013      19.249      23.223      28.005      33.585      39.831      46.462      53.058      59.098    
  63.719      65.753      64.663      60.929      56.020      51.918      50.327      51.918      56.020      60.929    
  64.663      65.753      63.719      59.098      53.058      46.462      39.831      33.585      28.005      23.223    
  19.249      16.013      13.411      11.338      9.7081      8.4496      7.5041      6.8226      6.3656      6.1042    
  5.1036      5.1861      5.4411      5.8896      6.5631      7.5041      8.7662      10.415      12.531      15.217    
  18.598      22.801      27.911      33.917      40.659      47.803      54.846      61.020      64.768      64.663    
  60.276      52.566      43.799      36.879      34.253      36.879      43.799      52.566      60.276      64.663    
  64.768      61.020      54.846      47.803      40.659      33.917      27.911      22.801      18.598      15.217    
  12.531      10.415      8.7662      7.5041      6.5631      5.8896      5.4411      5.1861      4.4581      4.5382    
  4.7865      5.2257      5.8896      6.8226      8.0808      9.7339      11.870      14.605      18.079      22.439    
  27.779      34.084      41.165      48.629      55.885      61.664      63.873      60.929      52.566      40.278    
  27.181      17.138      13.372      17.138      27.181      40.278      52.566      60.929      63.873      61.664    
  55.885      48.629      41.165      34.084      27.779      22.439      18.079      14.605      11.870      9.7339    
  8.0808      6.8226      5.8896      5.2257      4.7865      4.5382      4.0356      4.1134      4.3557      4.7865    
  5.4411      6.3656      7.6175      9.2684      11.411      14.171      17.700      22.157      27.643      34.136    
  41.419      49.049      56.304      61.382      61.851      56.020      43.799      27.181      10.045     -2.8854    
 -7.7016     -2.8854      10.045      27.181      43.799      56.020      61.851      61.382      56.304      49.049    
  41.419      34.136      27.643      22.157      17.700      14.171      11.411      9.2684      7.6175      6.3656    
  5.4411      4.7865      4.3557      4.1134      3.7990      3.8753      4.1134      4.5382      5.1861      6.1042    
  7.3505      8.9977      11.142      13.911      17.468      21.976      27.542      34.135      41.518      49.213    
  56.365      60.808      59.909      51.918      36.879      17.138     -2.8854     -17.869     -23.430     -17.869    
 -2.8854      17.138      36.879      51.918      59.909      60.808      56.365      49.213      41.518      34.135    
  27.542      21.976      17.468      13.911      11.142      8.9977      7.3505      6.1042      5.1861      4.5382    
  4.1134      3.8753      3.7232      3.7990      4.0356      4.4581      5.1036      6.0193      7.2634      8.9090    
  11.053      13.825      17.390      21.914      27.504      34.128      41.540      49.250      56.347      60.536    
  59.120      50.327      34.253      13.372     -7.7016     -23.430     -29.261     -23.430     -7.7016      13.372    
  34.253      50.327      59.120      60.536      56.347      49.250      41.540      34.128      27.504      21.914    
  17.390      13.825      11.053      8.9090      7.2634      6.0193      5.1036      4.4581      4.0356      3.7990    
  3.7990      3.8753      4.1134      4.5382      5.1861      6.1042      7.3505      8.9977      11.142      13.911    
  17.468      21.976      27.542      34.135      41.518      49.213      56.365      60.808      59.909      51.918    
  36.879      17.138     -2.8854     -17.869     -23.430     -17.869     -2.8854      17.138      36.879      51.918    
  59.909      60.808      56.365      49.213      41.518      34.135      27.542      21.976      17.468      13.911    
  11.142      8.9977      7.3505      6.1042      5.1861      4.5382      4.1134      3.8753      4.0356      4.1134    
  4.3557      4.7865      5.4411      6.3656      7.6175      9.2684      11.411      14.171      17.700      22.157    
  27.643      34.136      41.419      49.049      56.304      61.382      61.851      56.020      43.799      27.181    
  10.045     -2.8854     -7.7016     -2.8854      10.045      27.181      43.799      56.020      61.851      61.382    
  56.304      49.049      41.419      34.136      27.643      22.157      17.700      14.171      11.411      9.2684    
  7.6175      6.3656      5.4411      4.7865      4.3557      4.1134      4.4581      4.5382      4.7865      5.2257    
  5.8896      6.8226      8.0808      9.7339      11.870      14.605      18.079      22.439      27.779      34.084    
  41.165      48.629      55.885      61.664      63.873      60.929      52.566      40.278      27.181      17.138    
  13.372      17.138      27.181      40.278      52.566      60.929      63.873      61.664      55.885      48.629    
  41.165      34.084      27.779      22.439      18.079      14.605      11.870      9.7339      8.0808      6.8226    
  5.8896      5.2257      4.7865      4.5382      5.1036      5.1861      5.4411      5.8896      6.5631      7.5041    
  8.7662      10.415      12.531      15.217      18.598      22.801      27.911      33.917      40.659      47.803    
  54.846      61.020      64.768      64.663      60.276      52.566      43.799      36.879      34.253      36.879    
  43.799      52.566      60.276      64.663      64.768      61.020      54.846      47.803      40.659      33.917    
  27.911      22.801      18.598      15.217      12.531      10.415      8.7662      7.5041      6.5631      5.8896    
  5.4411      5.1861      6.0193      6.1042      6.3656      6.8226      7.5041      8.4496      9.7081      11.338    
  13.411      16.013      19.249      23.223      28.005      33.585      39.831      46.462      53.058      59.098    
  63.719      65.753      64.663      60.929      56.020      51.918      50.327      51.918      56.020      60.929    
  64.663      65.753      63.719      59.098      53.058      46.462      39.831      33.585      28.005      23.223    
  19.249      16.013      13.411      11.338      9.7081      8.4496      7.5041      6.8226      6.3656      6.1042    
  7.2634      7.3505      7.6175      8.0808      8.7662      9.7081      10.949      12.538      14.532      17.002    
  20.027      23.689      28.039      33.065      38.654      44.577      50.492      55.983      60.609      63.719    
  64.768      63.873      61.851      59.909      59.120      59.909      61.851      63.873      64.768      63.719    
  60.609      55.983      50.492      44.577      38.654      33.065      28.039      23.689      20.027      17.002    
  14.532      12.538      10.949      9.7081      8.7662      8.0808      7.6175      7.3505      8.9090      8.9977    
  9.2684      9.7339      10.415      11.338      12.538      14.050      15.919      18.193      20.931      24.191    
  28.005      32.356      37.150      42.199      47.237      51.940      55.983      59.098      61.020      61.664    
  61.382      60.808      60.536      60.808      61.382      61.664      61.020      59.098      55.983      51.940    
  47.237      42.199      37.150      32.356      28.005      24.191      20.931      18.193      15.919      14.050    
  12.538      11.338      10.415      9.7339      9.2684      8.9977      11.053      11.142      11.411      11.870    
  12.531      13.411      14.532      15.919      17.596      19.599      21.964      24.728      27.911      31.489    
  35.384      39.447      43.477      47.237      50.492      53.058      54.846      55.885      56.304      56.365    
  56.347      56.365      56.304      55.885      54.846      53.058      50.492      47.237      43.477      39.447    
  35.384      31.489      27.911      24.728      21.964      19.599      17.596      15.919      14.532      13.411    
  12.531      11.870      11.411      11.142      13.825      13.911      14.171      14.605      15.217      16.013    
  17.002      18.193      19.599      21.238      23.135      25.312      27.779      30.513      33.449      36.476    
  39.447      42.199      44.577      46.462      47.803      48.629      49.049      49.213      49.250      49.213    
  49.049      48.629      47.803      46.462      44.577      42.199      39.447      36.476      33.449      30.513    
  27.779      25.312      23.135      21.238      19.599      18.193      17.002      16.013      15.217      14.605    
  14.171      13.911      17.390      17.468      17.700      18.079      18.598      19.249      20.027      20.931    
  21.964      23.135      24.462      25.962      27.643      29.489      31.451      33.449      35.384      37.150    
  38.654      39.831      40.659      41.165      41.419      41.518      41.540      41.518      41.419      41.165    
  40.659      39.831      38.654      37.150      35.384      33.449      31.451      29.489      27.643      25.962    
  24.462      23.135      21.964      20.931      20.027      19.249      18.598      18.079      17.700      17.468    
  21.914      21.976      22.157      22.439      22.801      23.223      23.689      24.191      24.728      25.312    
  25.962      26.701      27.542      28.481      29.489      30.513      31.489      32.356      33.065      33.585    
  33.917      34.084      34.136      34.135      34.128      34.135      34.136      34.084      33.917      33.585    
  33.065      32.356      31.489      30.513      29.489      28.481      27.542      26.701      25.962      25.312    
  24.728      24.191      23.689      23.223      22.801      22.439      22.157      21.976      27.504      27.542    
  27.643      27.779      27.911      28.005      28.039      28.005      27.911      27.779      27.643      27.542    
  27.504      27.542      27.643      27.779      27.911      28.005      28.039      28.005      27.911      27.779    
  27.643      27.542      27.504      27.542      27.643      27.779      27.911      28.005      28.039      28.005    
  27.911      27.779      27.643      27.542      27.504      27.542      27.643      27.779      27.911      28.005    
  28.039      28.005      27.911      27.779      27.643      27.542      34.128      34.135      34.136      34.084    
  33.917      33.585      33.065      32.356      31.489      30.513      29.489      28.481      27.542      26.701    
  25.962      25.312      24.728      24.191      23.689      23.223      22.801      22.439      22.157      21.976    
  21.914      21.976      22.157      22.439      22.801      23.223      23.689      24.191      24.728      25.312    
  25.962      26.701      27.542      28.481      29.489      30.513      31.489      32.356      33.065      33.585    
  33.917      34.084      34.136      34.135      41.540      41.518      41.419      41.165      40.659      39.831    
  38.654      37.150      35.384      33.449      31.451      29.489      27.643      25.962      24.462      23.135    
  21.964      20.931      20.027      19.249      18.598      18.079      17.700      17.468      17.390      17.468    
  17.700      18.079      18.598      19.249      20.027      20.931      21.964      23.135      24.462      25.962    
  27.643      29.489      31.451      33.449      35.384      37.150      38.654      39.831      40.659      41.165    
  41.419      41.518      49.250      49.213      49.049      48.629      47.803      46.462      44.577      42.199    
  39.447      36.476      33.449      30.513      27.779      25.312      23.135      21.238      19.599      18.193    
  17.002      16.013      15.217      14.605      14.171      13.911      13.825      13.911      14.171      14.605    
  15.217      16.013      17.002      18.193      19.599      21.238      23.135      25.312      27.779      30.513    
  33.449      36.476      39.447      42.199      44.577      46.462      47.803      48.629      49.049      49.213    
  56.347      56.365      56.304      55.885      54.846      53.058      50.492      47.237      43.477      39.447    
  35.384      31.489      27.911      24.728      21.964      19.599      17.596      15.919      14.532      13.411    
  12.531      11.870      11.411      11.142      11.053      11.142      11.411      11.870      12.531      13.411    
  14.532      15.919      17.596      19.599      21.964      24.728      27.911      31.489      35.384      39.447    
  43.477      47.237      50.492      53.058      54.846      55.885      56.304      56.365      60.536      60.808    
  61.382      61.664      61.020      59.098      55.983      51.940      47.237      42.199      37.150      32.356    
  28.005      24.191      20.931      18.193      15.919      14.050      12.538      11.338      10.415      9.7339    
  9.2684      8.9977      8.9090      8.9977      9.2684      9.7339      10.415      11.338      12.538      14.050    
  15.919      18.193      20.931      24.191      28.005      32.356      37.150      42.199      47.237      51.940    
  55.983      59.098      61.020      61.664      61.382      60.808      59.120      59.909      61.851      63.873    
  64.768      63.719      60.609      55.983      50.492      44.577      38.654      33.065      28.039      23.689    
  20.027      17.002      14.532      12.538      10.949      9.7081      8.7662      8.0808      7.6175      7.3505    
  7.2634      7.3505      7.6175      8.0808      8.7662      9.7081      10.949      12.538      14.532      17.002    
  20.027      23.689      28.039      33.065      38.654      44.577      50.492      55.983      60.609      63.719    
  64.768      63.873      61.851      59.909      50.327      51.918      56.020      60.929      64.663      65.753    
  63.719      59.098      53.058      46.462      39.831      33.585      28.005      23.223      19.249      16.013    
  13.411      11.338      9.7081      8.4496      7.5041      6.8226      6.3656      6.1042      6.0193      6.1042    
  6.3656      6.8226      7.5041      8.4496      9.7081      11.338      13.411      16.013      19.249      23.223    
  28.005      33.585      39.831      46.462      53.058      59.098      63.719      65.753      64.663      60.929    
  56.020      51.918      34.253      36.879      43.799      52.566      60.276      64.663      64.768      61.020    
  54.846      47.803      40.659      33.917      27.911      22.801      18.598      15.217      12.531      10.415    
  8.7662      7.5041      6.5631      5.8896      5.4411      5.1861      5.1036      5.1861      5.4411      5.8896    
  6.5631      7.5041      8.7662      10.415      12.531      15.217      18.598      22.801      27.911      33.917    
  40.659      47.803      54.846      61.020      64.768      64.663      60.276      52.566      43.799      36.879    
  13.372      17.138      27.181      40.278      52.566      60.929      63.873      61.664      55.885      48.629    
  41.165      34.084      27.779      22.439      18.079      14.605      11.870      9.7339      8.0808      6.8226    
  5.8896      5.2257      4.7865      4.5382      4.4581      4.5382      4.7865      5.2257      5.8896      6.8226    
  8.0808      9.7339      11.870      14.605      18.079      22.439      27.779      34.084      41.165      48.629    
  55.885      61.664      63.873      60.929      52.566      40.278      27.181      17.138     -7.7016     -2.8854    
  10.045      27.181      43.799      56.020      61.851      61.382      56.304      49.049      41.419      34.136    
  27.643      22.157      17.700      14.171      11.411      9.2684      7.6175      6.3656      5.4411      4.7865    
  4.3557      4.1134      4.0356      4.1134      4.3557      4.7865      5.4411      6.3656      7.6175      9.2684    
  11.411      14.171      17.700      22.157      27.643      34.136      41.419      49.049      56.304      61.382    
  61.851      56.020      43.799      27.181      10.045     -2.8854     -23.430     -17.869     -2.8854      17.138    
  36.879      51.918      59.909      60.808      56.365      49.213      41.518      34.135      27.542      21.976    
  17.468      13.911      11.142      8.9977      7.3505      6.1042      5.1861      4.5382      4.1134      3.8753    
  3.7990      3.8753      4.1134      4.5382      5.1861      6.1042      7.3505      8.9977      11.142      13.911    
  17.468      21.976      27.542      34.135      41.518      49.213      56.365      60.808      59.909      51.918    
  36.879      17.138     -2.8854     -17.869     -23.430     -17.869     -2.8854      17.138      36.879      51.918    
  59.909      60.808      56.365      49.213      41.518      34.135      27.542      21.976      17.468      13.911    
  11.142      8.9977      7.3505      6.1042      5.1861      4.5382      4.1134      3.8753      3.7990      3.8753    
  4.1134      4.5382      5.1861      6.1042      7.3505      8.9977      11.142      13.911      17.468      21.976    
  27.542      34.135      41.518      49.213      56.365      60.808      59.909      51.918      36.879      17.138    
 -2.8854     -17.869     -17.869     -11.460      3.6882      23.224      42.030      55.970      62.946      63.063    
  58.107      50.663      42.768      35.220      28.481      22.781      18.150      14.484      11.620      9.3957    
  7.6814      6.3787      5.4123      4.7218      4.2587      3.9852      3.8753      3.9193      4.1252      4.5163    
  5.1273      6.0028      7.1986      8.7841      10.851      13.523      16.958      21.315      26.701      33.088    
  40.249      47.712      54.665      59.063      58.356      50.872      36.708      18.213     -.28528     -13.674    
 -2.8854      3.6882      17.579      34.795      50.788      62.003      66.771      65.397      59.650      51.929    
  43.918      36.295      29.489      23.715      18.999      15.244      12.292      9.9874      8.2020      6.8374    
  5.8167      5.0779      4.5715      4.2587      4.1134      4.1252      4.3008      4.6618      5.2400      6.0774    
  7.2268      8.7544      10.746      13.319      16.619      20.799      25.962      32.091      38.979      46.189    