unknown system                          
   1.00000000000000     
     5.352363    0.000000    0.000000
     0.000000    5.352363    0.000000
     0.000000    0.000000    5.352363
   Si
     8
Direct
  0.000000  0.000000  0.000000
  0.000000  0.500000  0.500000
  0.500000  0.000000  0.500000
  0.500000  0.500000  0.000000
  0.250000  0.250000  0.250000
  0.250000  0.750000  0.750000
  0.750000  0.250000  0.750000
  0.750000  0.750000  0.250000
 
   48   48   48
 -.29260667204E+02 -.23429730903E+02 -.77015823679E+01 0.13371885326E+02 0.34252564861E+02
 0.50327384441E+02 0.59119816269E+02 0.60536482294E+02 0.56346568386E+02 0.49250218104E+02
 0.41540211258E+02 0.34127650284E+02 0.27504233768E+02 0.21914148431E+02 0.17389956903E+02
 0.13824894165E+02 0.11052538007E+02 0.89089981962E+01 0.72633835810E+01 0.60192552324E+01
 0.51036054138E+01 0.44581112466E+01 0.40355854591E+01 0.37990156560E+01 0.37232238707E+01
 0.37990156560E+01 0.40355854591E+01 0.44581112466E+01 0.51036054138E+01 0.60192552324E+01
 0.72633835810E+01 0.89089981962E+01 0.11052538007E+02 0.13824894165E+02 0.17389956903E+02
 0.21914148431E+02 0.27504233768E+02 0.34127650284E+02 0.41540211258E+02 0.49250218104E+02
 0.56346568386E+02 0.60536482294E+02 0.59119816269E+02 0.50327384441E+02 0.34252564861E+02
 0.13371885326E+02 -.77015823679E+01 -.23429730903E+02 -.23429730903E+02 -.17868678840E+02
 -.28854042339E+01 0.17138138009E+02 0.36878907363E+02 0.51918344867E+02 0.59909233065E+02
 0.60808195085E+02 0.56365105781E+02 0.49212810503E+02 0.41517839874E+02 0.34134601965E+02
 0.27541902412E+02 0.21976396828E+02 0.17468121384E+02 0.13911200309E+02 0.11141575955E+02
 0.89977421483E+01 0.73504772898E+01 0.61041722862E+01 0.51861093677E+01 0.45381519485E+01
 0.41134358259E+01 0.38753487641E+01 0.37990156560E+01 0.38753487641E+01 0.41134358259E+01
 0.45381519485E+01 0.51861093677E+01 0.61041722862E+01 0.73504772898E+01 0.89977421483E+01
 0.11141575955E+02 0.13911200309E+02 0.17468121384E+02 0.21976396828E+02 0.27541902412E+02
 0.34134601965E+02 0.41517839874E+02 0.49212810503E+02 0.56365105781E+02 0.60808195085E+02
 0.59909233065E+02 0.51918344867E+02 0.36878907363E+02 0.17138138009E+02 -.28854042339E+01
 -.17868678840E+02 -.77015823679E+01 -.28854042339E+01 0.10044522090E+02 0.27180904817E+02
 0.43799322588E+02 0.56019908620E+02 0.61850703473E+02 0.61381994028E+02 0.56303864772E+02
 0.49049158798E+02 0.41419307305E+02 0.34136350655E+02 0.27643474619E+02 0.22156848542E+02
 0.17700102465E+02 0.14170538002E+02 0.11411393371E+02 0.92684205551E+01 0.76175001169E+01
 0.63656416181E+01 0.54411414267E+01 0.47864879688E+01 0.43557442265E+01 0.41134358259E+01
 0.40355854591E+01 0.41134358259E+01 0.43557442265E+01 0.47864879688E+01 0.54411414267E+01
 0.63656416181E+01 0.76175001169E+01 0.92684205551E+01 0.11411393371E+02 0.14170538002E+02
 0.17700102465E+02 0.22156848542E+02 0.27643474619E+02 0.34136350655E+02 0.41419307305E+02
 0.49049158798E+02 0.56303864772E+02 0.61381994028E+02 0.61850703473E+02 0.56019908620E+02
 0.43799322588E+02 0.27180904817E+02 0.10044522090E+02 -.28854042339E+01 0.13371885326E+02
 0.17138138009E+02 0.27180904817E+02 0.40278423552E+02 0.52565627323E+02 0.60928853289E+02
 0.63873090505E+02 0.61663717729E+02 0.55885425811E+02 0.48629249711E+02 0.41164537118E+02
 0.34083623449E+02 0.27779053398E+02 0.22438904309E+02 0.18079428983E+02 0.14604539950E+02
 0.11870038187E+02 0.97339374840E+01 0.80808454059E+01 0.68225562589E+01 0.58895675624E+01
 0.52256985337E+01 0.47864879688E+01 0.45381519485E+01 0.44581112466E+01 0.45381519485E+01
 0.47864879688E+01 0.52256985337E+01 0.58895675624E+01 0.68225562589E+01 0.80808454059E+01
 0.97339374840E+01 0.11870038187E+02 0.14604539950E+02 0.18079428983E+02 0.22438904309E+02
 0.27779053398E+02 0.34083623449E+02 0.41164537118E+02 0.48629249711E+02 0.55885425811E+02
 0.61663717729E+02 0.63873090505E+02 0.60928853289E+02 0.52565627323E+02 0.40278423552E+02
 0.27180904817E+02 0.17138138009E+02 0.34252564861E+02 0.36878907363E+02 0.43799322588E+02
 0.52565627323E+02 0.60275543284E+02 0.64663077452E+02 0.64767934195E+02 0.61019756715E+02
 0.54845563868E+02 0.47803158151E+02 0.40659220843E+02 0.33916536868E+02 0.27910970062E+02
 0.22801143739E+02 0.18598130926E+02 0.15216804963E+02 0.12530693707E+02 0.10414832357E+02
 0.87662334764E+01 0.75041277038E+01 0.65631141325E+01 0.58895675624E+01 0.54411414267E+01
 0.51861093677E+01 0.51036054138E+01 0.51861093677E+01 0.54411414267E+01 0.58895675624E+01
 0.65631141325E+01 0.75041277038E+01 0.87662334764E+01 0.10414832357E+02 0.12530693707E+02
 0.15216804963E+02 0.18598130926E+02 0.22801143739E+02 0.27910970062E+02 0.33916536868E+02
 0.40659220843E+02 0.47803158151E+02 0.54845563868E+02 0.61019756715E+02 0.64767934195E+02
 0.64663077452E+02 0.60275543284E+02 0.52565627323E+02 0.43799322588E+02 0.36878907363E+02
 0.50327384441E+02 0.51918344867E+02 0.56019908620E+02 0.60928853289E+02 0.64663077452E+02
 0.65753416238E+02 0.63719421838E+02 0.59098025067E+02 0.53057879511E+02 0.46462376301E+02
 0.39831266115E+02 0.33585448661E+02 0.28005218158E+02 0.23223089774E+02 0.19249076873E+02
 0.16013267390E+02 0.13411105688E+02 0.11338476298E+02 0.97081036311E+01 0.84495733978E+01
 0.75041277038E+01 0.68225562589E+01 0.63656416181E+01 0.61041722862E+01 0.60192552324E+01
 0.61041722862E+01 0.63656416181E+01 0.68225562589E+01 0.75041277038E+01 0.84495733978E+01
 0.97081036311E+01 0.11338476298E+02 0.13411105688E+02 0.16013267390E+02 0.19249076873E+02
 0.23223089774E+02 0.28005218158E+02 0.33585448661E+02 0.39831266115E+02 0.46462376301E+02
 0.53057879511E+02 0.59098025067E+02 0.63719421838E+02 0.65753416238E+02 0.64663077452E+02
 0.60928853289E+02 0.56019908620E+02 0.51918344867E+02 0.59119816269E+02 0.59909233065E+02
 0.61850703473E+02 0.63873090505E+02 0.64767934195E+02 0.63719421838E+02 0.60608565102E+02
 0.55982656913E+02 0.50491838355E+02 0.44576734053E+02 0.38653693316E+02 0.33064603818E+02
 0.28039224805E+02 0.23689154183E+02 0.20027343110E+02 0.17001914590E+02 0.14532466351E+02
 0.12537860639E+02 0.10948868367E+02 0.97081036311E+01 0.87662334764E+01 0.80808454059E+01
 0.76175001169E+01 0.73504772898E+01 0.72633835810E+01 0.73504772898E+01 0.76175001169E+01
 0.80808454059E+01 0.87662334764E+01 0.97081036311E+01 0.10948868367E+02 0.12537860639E+02
 0.14532466351E+02 0.17001914590E+02 0.20027343110E+02 0.23689154183E+02 0.28039224805E+02
 0.33064603818E+02 0.38653693316E+02 0.44576734053E+02 0.50491838355E+02 0.55982656913E+02
 0.60608565102E+02 0.63719421838E+02 0.64767934195E+02 0.63873090505E+02 0.61850703473E+02
 0.59909233065E+02 0.60536482294E+02 0.60808195085E+02 0.61381994028E+02 0.61663717729E+02
 0.61019756715E+02 0.59098025067E+02 0.55982656913E+02 0.51939592580E+02 0.47236645033E+02
 0.42199154519E+02 0.37149510508E+02 0.32356444160E+02 0.28005218158E+02 0.24190841032E+02
 0.20931197699E+02 0.18192673521E+02 0.15918517308E+02 0.14050376022E+02 0.12537860639E+02
 0.11338476298E+02 0.10414832357E+02 0.97339374840E+01 0.92684205551E+01 0.89977421483E+01
 0.89089981962E+01 0.89977421483E+01 0.92684205551E+01 0.97339374840E+01 0.10414832357E+02
 0.11338476298E+02 0.12537860639E+02 0.14050376022E+02 0.15918517308E+02 0.18192673521E+02
 0.20931197699E+02 0.24190841032E+02 0.28005218158E+02 0.32356444160E+02 0.37149510508E+02
 0.42199154519E+02 0.47236645033E+02 0.51939592580E+02 0.55982656913E+02 0.59098025067E+02
 0.61019756715E+02 0.61663717729E+02 0.61381994028E+02 0.60808195085E+02 0.56346568386E+02
 0.56365105781E+02 0.56303864772E+02 0.55885425811E+02 0.54845563868E+02 0.53057879511E+02
 0.50491838355E+02 0.47236645033E+02 0.43477290693E+02 0.39447367452E+02 0.35383648107E+02
 0.31489491072E+02 0.27910970062E+02 0.24728462655E+02 0.21963785796E+02 0.19598637246E+02
 0.17596340185E+02 0.15918517308E+02 0.14532466351E+02 0.13411105688E+02 0.12530693707E+02
 0.11870038187E+02 0.11411393371E+02 0.11141575955E+02 0.11052538007E+02 0.11141575955E+02
 0.11411393371E+02 0.11870038187E+02 0.12530693707E+02 0.13411105688E+02 0.14532466351E+02
 0.15918517308E+02 0.17596340185E+02 0.19598637246E+02 0.21963785796E+02 0.24728462655E+02
 0.27910970062E+02 0.31489491072E+02 0.35383648107E+02 0.39447367452E+02 0.43477290693E+02
 0.47236645033E+02 0.50491838355E+02 0.53057879511E+02 0.54845563868E+02 0.55885425811E+02
 0.56303864772E+02 0.56365105781E+02 0.49250218104E+02 0.49212810503E+02 0.49049158798E+02
 0.48629249711E+02 0.47803158151E+02 0.46462376301E+02 0.44576734053E+02 0.42199154519E+02
 0.39447367452E+02 0.36476168915E+02 0.33449062917E+02 0.30513013107E+02 0.27779053398E+02
 0.25312480819E+02 0.23135168706E+02 0.21238219366E+02 0.19598637246E+02 0.18192673521E+02
 0.17001914590E+02 0.16013267390E+02 0.15216804963E+02 0.14604539950E+02 0.14170538002E+02
 0.13911200309E+02 0.13824894165E+02 0.13911200309E+02 0.14170538002E+02 0.14604539950E+02
 0.15216804963E+02 0.16013267390E+02 0.17001914590E+02 0.18192673521E+02 0.19598637246E+02
 0.21238219366E+02 0.23135168706E+02 0.25312480819E+02 0.27779053398E+02 0.30513013107E+02
 0.33449062917E+02 0.36476168915E+02 0.39447367452E+02 0.42199154519E+02 0.44576734053E+02
 0.46462376301E+02 0.47803158151E+02 0.48629249711E+02 0.49049158798E+02 0.49212810503E+02
 0.41540211258E+02 0.41517839874E+02 0.41419307305E+02 0.41164537118E+02 0.40659220843E+02
 0.39831266115E+02 0.38653693316E+02 0.37149510508E+02 0.35383648107E+02 0.33449062917E+02
 0.31450797703E+02 0.29489081113E+02 0.27643474619E+02 0.25962397798E+02 0.24462100817E+02
 0.23135168706E+02 0.21963785796E+02 0.20931197699E+02 0.20027343110E+02 0.19249076873E+02
 0.18598130926E+02 0.18079428983E+02 0.17700102465E+02 0.17468121384E+02 0.17389956903E+02
 0.17468121384E+02 0.17700102465E+02 0.18079428983E+02 0.18598130926E+02 0.19249076873E+02
 0.20027343110E+02 0.20931197699E+02 0.21963785796E+02 0.23135168706E+02 0.24462100817E+02
 0.25962397798E+02 0.27643474619E+02 0.29489081113E+02 0.31450797703E+02 0.33449062917E+02
 0.35383648107E+02 0.37149510508E+02 0.38653693316E+02 0.39831266115E+02 0.40659220843E+02
 0.41164537118E+02 0.41419307305E+02 0.41517839874E+02 0.34127650284E+02 0.34134601965E+02
 0.34136350655E+02 0.34083623449E+02 0.33916536868E+02 0.33585448661E+02 0.33064603818E+02
 0.32356444160E+02 0.31489491072E+02 0.30513013107E+02 0.29489081113E+02 0.28481347843E+02
 0.27541902412E+02 0.26700680262E+02 0.25962397798E+02 0.25312480819E+02 0.24728462655E+02
 0.24190841032E+02 0.23689154183E+02 0.23223089774E+02 0.22801143739E+02 0.22438904309E+02
 0.22156848542E+02 0.21976396828E+02 0.21914148431E+02 0.21976396828E+02 0.22156848542E+02
 0.22438904309E+02 0.22801143739E+02 0.23223089774E+02 0.23689154183E+02 0.24190841032E+02
 0.24728462655E+02 0.25312480819E+02 0.25962397798E+02 0.26700680262E+02 0.27541902412E+02
 0.28481347843E+02 0.29489081113E+02 0.30513013107E+02 0.31489491072E+02 0.32356444160E+02
 0.33064603818E+02 0.33585448661E+02 0.33916536868E+02 0.34083623449E+02 0.34136350655E+02
 0.34134601965E+02 0.27504233768E+02 0.27541902412E+02 0.27643474619E+02 0.27779053398E+02
 0.27910970062E+02 0.28005218158E+02 0.28039224805E+02 0.28005218158E+02 0.27910970062E+02
 0.27779053398E+02 0.27643474619E+02 0.27541902412E+02 0.27504233768E+02 0.27541902412E+02
 0.27643474619E+02 0.27779053398E+02 0.27910970062E+02 0.28005218158E+02 0.28039224805E+02
 0.28005218158E+02 0.27910970062E+02 0.27779053398E+02 0.27643474619E+02 0.27541902412E+02
 0.27504233768E+02 0.27541902412E+02 0.27643474619E+02 0.27779053398E+02 0.27910970062E+02
 0.28005218158E+02 0.28039224805E+02 0.28005218158E+02 0.27910970062E+02 0.27779053398E+02
 0.27643474619E+02 0.27541902412E+02 0.27504233768E+02 0.27541902412E+02 0.27643474619E+02
 0.27779053398E+02 0.27910970062E+02 0.28005218158E+02 0.28039224805E+02 0.28005218158E+02
 0.27910970062E+02 0.27779053398E+02 0.27643474619E+02 0.27541902412E+02 0.21914148431E+02
 0.21976396828E+02 0.22156848542E+02 0.22438904309E+02 0.22801143739E+02 0.23223089774E+02
 0.23689154183E+02 0.24190841032E+02 0.24728462655E+02 0.25312480819E+02 0.25962397798E+02
 0.26700680262E+02 0.27541902412E+02 0.28481347843E+02 0.29489081113E+02 0.30513013107E+02
 0.31489491072E+02 0.32356444160E+02 0.33064603818E+02 0.33585448661E+02 0.33916536868E+02
 0.34083623449E+02 0.34136350655E+02 0.34134601965E+02 0.34127650284E+02 0.34134601965E+02
 0.34136350655E+02 0.34083623449E+02 0.33916536868E+02 0.33585448661E+02 0.33064603818E+02
 0.32356444160E+02 0.31489491072E+02 0.30513013107E+02 0.29489081113E+02 0.28481347843E+02
 0.27541902412E+02 0.26700680262E+02 0.25962397798E+02 0.25312480819E+02 0.24728462655E+02
 0.24190841032E+02 0.23689154183E+02 0.23223089774E+02 0.22801143739E+02 0.22438904309E+02
 0.22156848542E+02 0.21976396828E+02 0.17389956903E+02 0.17468121384E+02 0.17700102465E+02
 0.18079428983E+02 0.18598130926E+02 0.19249076873E+02 0.20027343110E+02 0.20931197699E+02
 0.21963785796E+02 0.23135168706E+02 0.24462100817E+02 0.25962397798E+02 0.27643474619E+02
 0.29489081113E+02 0.31450797703E+02 0.33449062917E+02 0.35383648107E+02 0.37149510508E+02
 0.38653693316E+02 0.39831266115E+02 0.40659220843E+02 0.41164537118E+02 0.41419307305E+02
 0.41517839874E+02 0.41540211258E+02 0.41517839874E+02 0.41419307305E+02 0.41164537118E+02
 0.40659220843E+02 0.39831266115E+02 0.38653693316E+02 0.37149510508E+02 0.35383648107E+02
 0.33449062917E+02 0.31450797703E+02 0.29489081113E+02 0.27643474619E+02 0.25962397798E+02
 0.24462100817E+02 0.23135168706E+02 0.21963785796E+02 0.20931197699E+02 0.20027343110E+02
 0.19249076873E+02 0.18598130926E+02 0.18079428983E+02 0.17700102465E+02 0.17468121384E+02
 0.13824894165E+02 0.13911200309E+02 0.14170538002E+02 0.14604539950E+02 0.15216804963E+02
 0.16013267390E+02 0.17001914590E+02 0.18192673521E+02 0.19598637246E+02 0.21238219366E+02
 0.23135168706E+02 0.25312480819E+02 0.27779053398E+02 0.30513013107E+02 0.33449062917E+02
 0.36476168915E+02 0.39447367452E+02 0.42199154519E+02 0.44576734053E+02 0.46462376301E+02
 0.47803158151E+02 0.48629249711E+02 0.49049158798E+02 0.49212810503E+02 0.49250218104E+02
 0.49212810503E+02 0.49049158798E+02 0.48629249711E+02 0.47803158151E+02 0.46462376301E+02
 0.44576734053E+02 0.42199154519E+02 0.39447367452E+02 0.36476168915E+02 0.33449062917E+02
 0.30513013107E+02 0.27779053398E+02 0.25312480819E+02 0.23135168706E+02 0.21238219366E+02
 0.19598637246E+02 0.18192673521E+02 0.17001914590E+02 0.16013267390E+02 0.15216804963E+02
 0.14604539950E+02 0.14170538002E+02 0.13911200309E+02 0.11052538007E+02 0.11141575955E+02
 0.11411393371E+02 0.11870038187E+02 0.12530693707E+02 0.13411105688E+02 0.14532466351E+02
 0.15918517308E+02 0.17596340185E+02 0.19598637246E+02 0.21963785796E+02 0.24728462655E+02
 0.27910970062E+02 0.31489491072E+02 0.35383648107E+02 0.39447367452E+02 0.43477290693E+02
 0.47236645033E+02 0.50491838355E+02 0.53057879511E+02 0.54845563868E+02 0.55885425811E+02
 0.56303864772E+02 0.56365105781E+02 0.56346568386E+02 0.56365105781E+02 0.56303864772E+02
 0.55885425811E+02 0.54845563868E+02 0.53057879511E+02 0.50491838355E+02 0.47236645033E+02
 0.43477290693E+02 0.39447367452E+02 0.35383648107E+02 0.31489491072E+02 0.27910970062E+02
 0.24728462655E+02 0.21963785796E+02 0.19598637246E+02 0.17596340185E+02 0.15918517308E+02
 0.14532466351E+02 0.13411105688E+02 0.12530693707E+02 0.11870038187E+02 0.11411393371E+02
 0.11141575955E+02 0.89089981962E+01 0.89977421483E+01 0.92684205551E+01 0.97339374840E+01
 0.10414832357E+02 0.11338476298E+02 0.12537860639E+02 0.14050376022E+02 0.15918517308E+02
 0.18192673521E+02 0.20931197699E+02 0.24190841032E+02 0.28005218158E+02 0.32356444160E+02
 0.37149510508E+02 0.42199154519E+02 0.47236645033E+02 0.51939592580E+02 0.55982656913E+02
 0.59098025067E+02 0.61019756715E+02 0.61663717729E+02 0.61381994028E+02 0.60808195085E+02
 0.60536482294E+02 0.60808195085E+02 0.61381994028E+02 0.61663717729E+02 0.61019756715E+02
 0.59098025067E+02 0.55982656913E+02 0.51939592580E+02 0.47236645033E+02 0.42199154519E+02
 0.37149510508E+02 0.32356444160E+02 0.28005218158E+02 0.24190841032E+02 0.20931197699E+02
 0.18192673521E+02 0.15918517308E+02 0.14050376022E+02 0.12537860639E+02 0.11338476298E+02
 0.10414832357E+02 0.97339374840E+01 0.92684205551E+01 0.89977421483E+01 0.72633835810E+01
 0.73504772898E+01 0.76175001169E+01 0.80808454059E+01 0.87662334764E+01 0.97081036311E+01
 0.10948868367E+02 0.12537860639E+02 0.14532466351E+02 0.17001914590E+02 0.20027343110E+02
 0.23689154183E+02 0.28039224805E+02 0.33064603818E+02 0.38653693316E+02 0.44576734053E+02
 0.50491838355E+02 0.55982656913E+02 0.60608565102E+02 0.63719421838E+02 0.64767934195E+02
 0.63873090505E+02 0.61850703473E+02 0.59909233065E+02 0.59119816269E+02 0.59909233065E+02
 0.61850703473E+02 0.63873090505E+02 0.64767934195E+02 0.63719421838E+02 0.60608565102E+02
 0.55982656913E+02 0.50491838355E+02 0.44576734053E+02 0.38653693316E+02 0.33064603818E+02
 0.28039224805E+02 0.23689154183E+02 0.20027343110E+02 0.17001914590E+02 0.14532466351E+02
 0.12537860639E+02 0.10948868367E+02 0.97081036311E+01 0.87662334764E+01 0.80808454059E+01
 0.76175001169E+01 0.73504772898E+01 0.60192552324E+01 0.61041722862E+01 0.63656416181E+01
 0.68225562589E+01 0.75041277038E+01 0.84495733978E+01 0.97081036311E+01 0.11338476298E+02
 0.13411105688E+02 0.16013267390E+02 0.19249076873E+02 0.23223089774E+02 0.28005218158E+02
 0.33585448661E+02 0.39831266115E+02 0.46462376301E+02 0.53057879511E+02 0.59098025067E+02
 0.63719421838E+02 0.65753416238E+02 0.64663077452E+02 0.60928853289E+02 0.56019908620E+02
 0.51918344867E+02 0.50327384441E+02 0.51918344867E+02 0.56019908620E+02 0.60928853289E+02
 0.64663077452E+02 0.65753416238E+02 0.63719421838E+02 0.59098025067E+02 0.53057879511E+02
 0.46462376301E+02 0.39831266115E+02 0.33585448661E+02 0.28005218158E+02 0.23223089774E+02
 0.19249076873E+02 0.16013267390E+02 0.13411105688E+02 0.11338476298E+02 0.97081036311E+01
 0.84495733978E+01 0.75041277038E+01 0.68225562589E+01 0.63656416181E+01 0.61041722862E+01
 0.51036054138E+01 0.51861093677E+01 0.54411414267E+01 0.58895675624E+01 0.65631141325E+01
 0.75041277038E+01 0.87662334764E+01 0.10414832357E+02 0.12530693707E+02 0.15216804963E+02
 0.18598130926E+02 0.22801143739E+02 0.27910970062E+02 0.33916536868E+02 0.40659220843E+02
 0.47803158151E+02 0.54845563868E+02 0.61019756715E+02 0.64767934195E+02 0.64663077452E+02
 0.60275543284E+02 0.52565627323E+02 0.43799322588E+02 0.36878907363E+02 0.34252564861E+02
 0.36878907363E+02 0.43799322588E+02 0.52565627323E+02 0.60275543284E+02 0.64663077452E+02
 0.64767934195E+02 0.61019756715E+02 0.54845563868E+02 0.47803158151E+02 0.40659220843E+02
 0.33916536868E+02 0.27910970062E+02 0.22801143739E+02 0.18598130926E+02 0.15216804963E+02
 0.12530693707E+02 0.10414832357E+02 0.87662334764E+01 0.75041277038E+01 0.65631141325E+01
 0.58895675624E+01 0.54411414267E+01 0.51861093677E+01 0.44581112466E+01 0.45381519485E+01
 0.47864879688E+01 0.52256985337E+01 0.58895675624E+01 0.68225562589E+01 0.80808454059E+01
 0.97339374840E+01 0.11870038187E+02 0.14604539950E+02 0.18079428983E+02 0.22438904309E+02
 0.27779053398E+02 0.34083623449E+02 0.41164537118E+02 0.48629249711E+02 0.55885425811E+02
 0.61663717729E+02 0.63873090505E+02 0.60928853289E+02 0.52565627323E+02 0.40278423552E+02
 0.27180904817E+02 0.17138138009E+02 0.13371885326E+02 0.17138138009E+02 0.27180904817E+02
 0.40278423552E+02 0.52565627323E+02 0.60928853289E+02 0.63873090505E+02 0.61663717729E+02
 0.55885425811E+02 0.48629249711E+02 0.41164537118E+02 0.34083623449E+02 0.27779053398E+02
 0.22438904309E+02 0.18079428983E+02 0.14604539950E+02 0.11870038187E+02 0.97339374840E+01
 0.80808454059E+01 0.68225562589E+01 0.58895675624E+01 0.52256985337E+01 0.47864879688E+01
 0.45381519485E+01 0.40355854591E+01 0.41134358259E+01 0.43557442265E+01 0.47864879688E+01
 0.54411414267E+01 0.63656416181E+01 0.76175001169E+01 0.92684205551E+01 0.11411393371E+02
 0.14170538002E+02 0.17700102465E+02 0.22156848542E+02 0.27643474619E+02 0.34136350655E+02
 0.41419307305E+02 0.49049158798E+02 0.56303864772E+02 0.61381994028E+02 0.61850703473E+02
 0.56019908620E+02 0.43799322588E+02 0.27180904817E+02 0.10044522090E+02 -.28854042339E+01
 -.77015823679E+01 -.28854042339E+01 0.10044522090E+02 0.27180904817E+02 0.43799322588E+02
 0.56019908620E+02 0.61850703473E+02 0.61381994028E+02 0.56303864772E+02 0.49049158798E+02
 0.41419307305E+02 0.34136350655E+02 0.27643474619E+02 0.22156848542E+02 0.17700102465E+02
 0.14170538002E+02 0.11411393371E+02 0.92684205551E+01 0.76175001169E+01 0.63656416181E+01
 0.54411414267E+01 0.47864879688E+01 0.43557442265E+01 0.41134358259E+01 0.37990156560E+01
 0.38753487641E+01 0.41134358259E+01 0.45381519485E+01 0.51861093677E+01 0.61041722862E+01
 0.73504772898E+01 0.89977421483E+01 0.11141575955E+02 0.13911200309E+02 0.17468121384E+02
 0.21976396828E+02 0.27541902412E+02 0.34134601965E+02 0.41517839874E+02 0.49212810503E+02
 0.56365105781E+02 0.60808195085E+02 0.59909233065E+02 0.51918344867E+02 0.36878907363E+02
 0.17138138009E+02 -.28854042339E+01 -.17868678840E+02 -.23429730903E+02 -.17868678840E+02
 -.28854042339E+01 0.17138138009E+02 0.36878907363E+02 0.51918344867E+02 0.59909233065E+02
 0.60808195085E+02 0.56365105781E+02 0.49212810503E+02 0.41517839874E+02 0.34134601965E+02
 0.27541902412E+02 0.21976396828E+02 0.17468121384E+02 0.13911200309E+02 0.11141575955E+02
 0.89977421483E+01 0.73504772898E+01 0.61041722862E+01 0.51861093677E+01 0.45381519485E+01
 0.41134358259E+01 0.38753487641E+01 0.37232238707E+01 0.37990156560E+01 0.40355854591E+01
 0.44581112466E+01 0.51036054138E+01 0.60192552324E+01 0.72633835810E+01 0.89089981962E+01
 0.11052538007E+02 0.13824894165E+02 0.17389956903E+02 0.21914148431E+02 0.27504233768E+02
 0.34127650284E+02 0.41540211258E+02 0.49250218104E+02 0.56346568386E+02 0.60536482294E+02
 0.59119816269E+02 0.50327384441E+02 0.34252564861E+02 0.13371885326E+02 -.77015823679E+01
 -.23429730903E+02 -.29260667204E+02 -.23429730903E+02 -.77015823679E+01 0.13371885326E+02
 0.34252564861E+02 0.50327384441E+02 0.59119816269E+02 0.60536482294E+02 0.56346568386E+02
 0.49250218104E+02 0.41540211258E+02 0.34127650284E+02 0.27504233768E+02 0.21914148431E+02
 0.17389956903E+02 0.13824894165E+02 0.11052538007E+02 0.89089981962E+01 0.72633835810E+01
 0.60192552324E+01 0.51036054138E+01 0.44581112466E+01 0.40355854591E+01 0.37990156560E+01
 0.37990156560E+01 0.38753487641E+01 0.41134358259E+01 0.45381519485E+01 0.51861093677E+01
 0.61041722862E+01 0.73504772898E+01 0.89977421483E+01 0.11141575955E+02 0.13911200309E+02
 0.17468121384E+02 0.21976396828E+02 0.27541902412E+02 0.34134601965E+02 0.41517839874E+02
 0.49212810503E+02 0.56365105781E+02 0.60808195085E+02 0.59909233065E+02 0.51918344867E+02
 0.36878907363E+02 0.17138138009E+02 -.28854042339E+01 -.17868678840E+02 -.23429730903E+02
 -.17868678840E+02 -.28854042339E+01 0.17138138009E+02 0.36878907363E+02 0.51918344867E+02
 0.59909233065E+02 0.60808195085E+02 0.56365105781E+02 0.49212810503E+02 0.41517839874E+02
 0.34134601965E+02 0.27541902412E+02 0.21976396828E+02 0.17468121384E+02 0.13911200309E+02
 0.11141575955E+02 0.89977421483E+01 0.73504772898E+01 0.61041722862E+01 0.51861093677E+01
 0.45381519485E+01 0.41134358259E+01 0.38753487641E+01 0.40355854591E+01 0.41134358259E+01
 0.43557442265E+01 0.47864879688E+01 0.54411414267E+01 0.63656416181E+01 0.76175001169E+01
 0.92684205551E+01 0.11411393371E+02 0.14170538002E+02 0.17700102465E+02 0.22156848542E+02
 0.27643474619E+02 0.34136350655E+02 0.41419307305E+02 0.49049158798E+02 0.56303864772E+02
 0.61381994028E+02 0.61850703473E+02 0.56019908620E+02 0.43799322588E+02 0.27180904817E+02
 0.10044522090E+02 -.28854042339E+01 -.77015823679E+01 -.28854042339E+01 0.10044522090E+02
 0.27180904817E+02 0.43799322588E+02 0.56019908620E+02 0.61850703473E+02 0.61381994028E+02
 0.56303864772E+02 0.49049158798E+02 0.41419307305E+02 0.34136350655E+02 0.27643474619E+02
 0.22156848542E+02 0.17700102465E+02 0.14170538002E+02 0.11411393371E+02 0.92684205551E+01
 0.76175001169E+01 0.63656416181E+01 0.54411414267E+01 0.47864879688E+01 0.43557442265E+01
 0.41134358259E+01 0.44581112466E+01 0.45381519485E+01 0.47864879688E+01 0.52256985337E+01
 0.58895675624E+01 0.68225562589E+01 0.80808454059E+01 0.97339374840E+01 0.11870038187E+02
 0.14604539950E+02 0.18079428983E+02 0.22438904309E+02 0.27779053398E+02 0.34083623449E+02
 0.41164537118E+02 0.48629249711E+02 0.55885425811E+02 0.61663717729E+02 0.63873090505E+02
 0.60928853289E+02 0.52565627323E+02 0.40278423552E+02 0.27180904817E+02 0.17138138009E+02
 0.13371885326E+02 0.17138138009E+02 0.27180904817E+02 0.40278423552E+02 0.52565627323E+02
 0.60928853289E+02 0.63873090505E+02 0.61663717729E+02 0.55885425811E+02 0.48629249711E+02
 0.41164537118E+02 0.34083623449E+02 0.27779053398E+02 0.22438904309E+02 0.18079428983E+02
 0.14604539950E+02 0.11870038187E+02 0.97339374840E+01 0.80808454059E+01 0.68225562589E+01
 0.58895675624E+01 0.52256985337E+01 0.47864879688E+01 0.45381519485E+01 0.51036054138E+01
 0.51861093677E+01 0.54411414267E+01 0.58895675624E+01 0.65631141325E+01 0.75041277038E+01
 0.87662334764E+01 0.10414832357E+02 0.12530693707E+02 0.15216804963E+02 0.18598130926E+02
 0.22801143739E+02 0.27910970062E+02 0.33916536868E+02 0.40659220843E+02 0.47803158151E+02
 0.54845563868E+02 0.61019756715E+02 0.64767934195E+02 0.64663077452E+02 0.60275543284E+02
 0.52565627323E+02 0.43799322588E+02 0.36878907363E+02 0.34252564861E+02 0.36878907363E+02
 0.43799322588E+02 0.52565627323E+02 0.60275543284E+02 0.64663077452E+02 0.64767934195E+02
 0.61019756715E+02 0.54845563868E+02 0.47803158151E+02 0.40659220843E+02 0.33916536868E+02
 0.27910970062E+02 0.22801143739E+02 0.18598130926E+02 0.15216804963E+02 0.12530693707E+02
 0.10414832357E+02 0.87662334764E+01 0.75041277038E+01 0.65631141325E+01 0.58895675624E+01
 0.54411414267E+01 0.51861093677E+01 0.60192552324E+01 0.61041722862E+01 0.63656416181E+01
 0.68225562589E+01 0.75041277038E+01 0.84495733978E+01 0.97081036311E+01 0.11338476298E+02
 0.13411105688E+02 0.16013267390E+02 0.19249076873E+02 0.23223089774E+02 0.28005218158E+02
 0.33585448661E+02 0.39831266115E+02 0.46462376301E+02 0.53057879511E+02 0.59098025067E+02
 0.63719421838E+02 0.65753416238E+02 0.64663077452E+02 0.60928853289E+02 0.56019908620E+02
 0.51918344867E+02 0.50327384441E+02 0.51918344867E+02 0.56019908620E+02 0.60928853289E+02
 0.64663077452E+02 0.65753416238E+02 0.63719421838E+02 0.59098025067E+02 0.53057879511E+02
 0.46462376301E+02 0.39831266115E+02 0.33585448661E+02 0.28005218158E+02 0.23223089774E+02
 0.19249076873E+02 0.16013267390E+02 0.13411105688E+02 0.11338476298E+02 0.97081036311E+01
 0.84495733978E+01 0.75041277038E+01 0.68225562589E+01 0.63656416181E+01 0.61041722862E+01
 0.72633835810E+01 0.73504772898E+01 0.76175001169E+01 0.80808454059E+01 0.87662334764E+01
 0.97081036311E+01 0.10948868367E+02 0.12537860639E+02 0.14532466351E+02 0.17001914590E+02
 0.20027343110E+02 0.23689154183E+02 0.28039224805E+02 0.33064603818E+02 0.38653693316E+02
 0.44576734053E+02 0.50491838355E+02 0.55982656913E+02 0.60608565102E+02 0.63719421838E+02
 0.64767934195E+02 0.63873090505E+02 0.61850703473E+02 0.59909233065E+02 0.59119816269E+02
 0.59909233065E+02 0.61850703473E+02 0.63873090505E+02 0.64767934195E+02 0.63719421838E+02
 0.60608565102E+02 0.55982656913E+02 0.50491838355E+02 0.44576734053E+02 0.38653693316E+02
 0.33064603818E+02 0.28039224805E+02 0.23689154183E+02 0.20027343110E+02 0.17001914590E+02
 0.14532466351E+02 0.12537860639E+02 0.10948868367E+02 0.97081036311E+01 0.87662334764E+01
 0.80808454059E+01 0.76175001169E+01 0.73504772898E+01 0.89089981962E+01 0.89977421483E+01
 0.92684205551E+01 0.97339374840E+01 0.10414832357E+02 0.11338476298E+02 0.12537860639E+02
 0.14050376022E+02 0.15918517308E+02 0.18192673521E+02 0.20931197699E+02 0.24190841032E+02
 0.28005218158E+02 0.32356444160E+02 0.37149510508E+02 0.42199154519E+02 0.47236645033E+02
 0.51939592580E+02 0.55982656913E+02 0.59098025067E+02 0.61019756715E+02 0.61663717729E+02
 0.61381994028E+02 0.60808195085E+02 0.60536482294E+02 0.60808195085E+02 0.61381994028E+02
 0.61663717729E+02 0.61019756715E+02 0.59098025067E+02 0.55982656913E+02 0.51939592580E+02
 0.47236645033E+02 0.42199154519E+02 0.37149510508E+02 0.32356444160E+02 0.28005218158E+02
 0.24190841032E+02 0.20931197699E+02 0.18192673521E+02 0.15918517308E+02 0.14050376022E+02
 0.12537860639E+02 0.11338476298E+02 0.10414832357E+02 0.97339374840E+01 0.92684205551E+01
 0.89977421483E+01 0.11052538007E+02 0.11141575955E+02 0.11411393371E+02 0.11870038187E+02
 0.12530693707E+02 0.13411105688E+02 0.14532466351E+02 0.15918517308E+02 0.17596340185E+02
 0.19598637246E+02 0.21963785796E+02 0.24728462655E+02 0.27910970062E+02 0.31489491072E+02
 0.35383648107E+02 0.39447367452E+02 0.43477290693E+02 0.47236645033E+02 0.50491838355E+02
 0.53057879511E+02 0.54845563868E+02 0.55885425811E+02 0.56303864772E+02 0.56365105781E+02
 0.56346568386E+02 0.56365105781E+02 0.56303864772E+02 0.55885425811E+02 0.54845563868E+02
 0.53057879511E+02 0.50491838355E+02 0.47236645033E+02 0.43477290693E+02 0.39447367452E+02
 0.35383648107E+02 0.31489491072E+02 0.27910970062E+02 0.24728462655E+02 0.21963785796E+02
 0.19598637246E+02 0.17596340185E+02 0.15918517308E+02 0.14532466351E+02 0.13411105688E+02
 0.12530693707E+02 0.11870038187E+02 0.11411393371E+02 0.11141575955E+02 0.13824894165E+02
 0.13911200309E+02 0.14170538002E+02 0.14604539950E+02 0.15216804963E+02 0.16013267390E+02
 0.17001914590E+02 0.18192673521E+02 0.19598637246E+02 0.21238219366E+02 0.23135168706E+02
 0.25312480819E+02 0.27779053398E+02 0.30513013107E+02 0.33449062917E+02 0.36476168915E+02
 0.39447367452E+02 0.42199154519E+02 0.44576734053E+02 0.46462376301E+02 0.47803158151E+02
 0.48629249711E+02 0.49049158798E+02 0.49212810503E+02 0.49250218104E+02 0.49212810503E+02
 0.49049158798E+02 0.48629249711E+02 0.47803158151E+02 0.46462376301E+02 0.44576734053E+02
 0.42199154519E+02 0.39447367452E+02 0.36476168915E+02 0.33449062917E+02 0.30513013107E+02