    8    8    1    1
  0.2083333E+02  0.5503212E-09  0.5503212E-09  0.5503212E-09  0.5000000E-15
  1.000000000000000E-004
  CAR 
 unknown system                          
     32     35     36
