       N       E                     dE             d eps       ncg     rms          rms(c)
DAV:   1    -0.439901827448E+02   -0.43990E+02   -0.10842E+01  3636   0.903E+00    0.109E+01
DAV:   2    -0.434232783875E+02    0.56690E+00   -0.44849E-01  3276   0.204E+00    0.636E+00
DAV:   3    -0.431674140763E+02    0.25586E+00   -0.70200E-01  3636   0.206E+00    0.504E-01
DAV:   4    -0.431710114328E+02   -0.35974E-02   -0.75816E-03  3564   0.335E-01    0.221E-01
DAV:   5    -0.431723526963E+02   -0.13413E-02   -0.41658E-03  3276   0.169E-01    0.139E-01
DAV:   6    -0.431724220535E+02   -0.69357E-04   -0.53655E-05  3924   0.281E-02
   1 F= -.43172422E+02 E0= -.43172868E+02  d E =0.133743E-02
