PROCAR lm decomposed
# of k-points:  286         # of bands:   36         # of ions:    2

 k-point     1 :    0.00000000 0.00000000 0.00000000     weight = 0.00010798

band     1 # energy   -6.13228185 # occ.  2.00000000
 
ion      s     py     pz     px    dxy    dyz    dz2    dxz  x2-y2    tot
    1  0.215  0.000  0.000  0.000  0.000  0.000  0.000  0.000  0.000  0.215
    2  0.215  0.000  0.000  0.000  0.000  0.000  0.000  0.000  0.000  0.215
tot    0.430  0.000  0.000  0.000  0.000  0.000  0.000  0.000  0.000  0.430
 
band     2 # energy    5.83877112 # occ.  2.00000000
 
ion      s     py     pz     px    dxy    dyz    dz2    dxz  x2-y2    tot
    1  0.000  0.073  0.073  0.073  0.000  0.000  0.000  0.000  0.000  0.219
    2  0.000  0.073  0.073  0.073  0.000  0.000  0.000  0.000  0.000  0.219
tot    0.000  0.146  0.146  0.146  0.000  0.000  0.000  0.000  0.000  0.439
 
band     3 # energy    5.83878656 # occ.  2.00000000
 
ion      s     py     pz     px    dxy    dyz    dz2    dxz  x2-y2    tot
    1  0.000  0.000  0.114  0.105  0.000  0.000  0.000  0.000  0.000  0.219
    2  0.000  0.000  0.114  0.105  0.000  0.000  0.000  0.000  0.000  0.219
tot    0.000  0.000  0.228  0.210  0.000  0.000  0.000  0.000  0.000  0.439
 
band     4 # energy    5.83878656 # occ.  2.00000000
 
ion      s     py     pz     px    dxy    dyz    dz2    dxz  x2-y2    tot
    1  0.000  0.146  0.032  0.041  0.000  0.000  0.000  0.000  0.000  0.219
    2  0.000  0.146  0.032  0.041  0.000  0.000  0.000  0.000  0.000  0.219
tot    0.000  0.292  0.065  0.082  0.000  0.000  0.000  0.000  0.000  0.439
 
band     5 # energy    8.40520623 # occ.  0.00000000
 
ion      s     py     pz     px    dxy    dyz    dz2    dxz  x2-y2    tot
    1  0.000  0.051  0.051  0.051  0.000  0.000  0.000  0.000  0.000  0.154
    2  0.000  0.051  0.051  0.051  0.000  0.000  0.000  0.000  0.000  0.154
tot    0.000  0.103  0.103  0.103  0.000  0.000  0.000  0.000  0.000  0.308
 
band     6 # energy    8.40522270 # occ.  0.00000000
 
ion      s     py     pz     px    dxy    dyz    dz2    dxz  x2-y2    tot
    1  0.000  0.000  0.077  0.077  0.000  0.000  0.000  0.000  0.000  0.154
    2  0.000  0.000  0.077  0.077  0.000  0.000  0.000  0.000  0.000  0.154
tot    0.000  0.000  0.154  0.154  0.000  0.000  0.000  0.000  0.000  0.308
 
band     7 # energy    8.40522270 # occ.  0.00000000
 
ion      s     py     pz     px    dxy    dyz    dz2    dxz  x2-y2    tot
    1  0.000  0.103  0.026  0.026  0.000  0.000  0.000  0.000  0.000  0.154
    2  0.000  0.103  0.026  0.026  0.000  0.000  0.000  0.000  0.000  0.154
tot    0.000  0.205  0.051  0.051  0.000  0.000  0.000  0.000  0.000  0.308
 
band     8 # energy    9.19890544 # occ.  0.00000000
 
ion      s     py     pz     px    dxy    dyz    dz2    dxz  x2-y2    tot
    1  0.361  0.000  0.000  0.000  0.000  0.000  0.000  0.000  0.000  0.361
    2  0.361  0.000  0.000  0.000  0.000  0.000  0.000  0.000  0.000  0.361
tot    0.722  0.000  0.000  0.000  0.000  0.000  0.000  0.000  0.000  0.722
 
band     9 # energy   13.62383247 # occ.  0.00000000
 
ion      s     py     pz     px    dxy    dyz    dz2    dxz  x2-y2    tot
    1  0.000  0.000  0.000  0.000  0.000  0.000  0.000  0.000  0.000  0.000
    2  0.000  0.000  0.000  0.000  0.000  0.000  0.000  0.000  0.000  0.000
tot    0.000  0.000  0.000  0.000  0.000  0.000  0.000  0.000  0.000  0.000
 
band    10 # energy   13.62383247 # occ.  0.00000000
 
ion      s     py     pz     px    dxy    dyz    dz2    dxz  x2-y2    tot
    1  0.000  0.000  0.000  0.000  0.000  0.000  0.000  0.000  0.000  0.000
    2  0.000  0.000  0.000  0.000  0.000  0.000  0.000  0.000  0.000  0.000
tot    0.000  0.000  0.000  0.000  0.000  0.000  0.000  0.000  0.000  0.000
 
band    11 # energy   13.78555478 # occ.  0.00000000
 
ion      s     py     pz     px    dxy    dyz    dz2    dxz  x2-y2    tot
    1  0.102  0.000  0.000  0.000  0.000  0.000  0.000  0.000  0.000  0.102
    2  0.102  0.000  0.000  0.000  0.000  0.000  0.000  0.000  0.000  0.102
tot    0.205  0.000  0.000  0.000  0.000  0.000  0.000  0.000  0.000  0.205
 
band    12 # energy   17.11283918 # occ.  0.00000000
 
ion      s     py     pz     px    dxy    dyz    dz2    dxz  x2-y2    tot
    1  0.000  0.013  0.013  0.013  0.000  0.000  0.000  0.000  0.000  0.040
    2  0.000  0.013  0.013  0.013  0.000  0.000  0.000  0.000  0.000  0.040
tot    0.000  0.027  0.027  0.027  0.000  0.000  0.000  0.000  0.000  0.080
 
band    13 # energy   17.11284545 # occ.  0.00000000
 
ion      s     py     pz     px    dxy    dyz    dz2    dxz  x2-y2    tot
    1  0.000  0.000  0.022  0.018  0.000  0.000  0.000  0.000  0.000  0.040
    2  0.000  0.000  0.022  0.018  0.000  0.000  0.000  0.000  0.000  0.040
tot    0.000  0.001  0.044  0.036  0.000  0.000  0.000  0.000  0.000  0.080
 
band    14 # energy   17.11284546 # occ.  0.00000000
 
ion      s     py     pz     px    dxy    dyz    dz2    dxz  x2-y2    tot
    1  0.000  0.026  0.005  0.009  0.000  0.000  0.000  0.000  0.000  0.040
    2  0.000  0.026  0.005  0.009  0.000  0.000  0.000  0.000  0.000  0.040
tot    0.000  0.053  0.010  0.018  0.000  0.000  0.000  0.000  0.000  0.080
 
band    15 # energy   21.23074599 # occ.  0.00000000
 
ion      s     py     pz     px    dxy    dyz    dz2    dxz  x2-y2    tot
    1  0.040  0.000  0.000  0.000  0.000  0.000  0.000  0.000  0.000  0.040
    2  0.040  0.000  0.000  0.000  0.000  0.000  0.000  0.000  0.000  0.040
tot    0.080  0.000  0.000  0.000  0.000  0.000  0.000  0.000  0.000  0.080
 
band    16 # energy   29.19198126 # occ.  0.00000000
 
ion      s     py     pz     px    dxy    dyz    dz2    dxz  x2-y2    tot
    1  0.000  0.003  0.003  0.003  0.000  0.000  0.000  0.000  0.000  0.010
    2  0.000  0.003  0.003  0.003  0.000  0.000  0.000  0.000  0.000  0.010
tot    0.000  0.007  0.007  0.007  0.000  0.000  0.000  0.000  0.000  0.021
 
band    17 # energy   29.19199613 # occ.  0.00000000
 
ion      s     py     pz     px    dxy    dyz    dz2    dxz  x2-y2    tot
    1  0.000  0.000  0.005  0.005  0.000  0.000  0.000  0.000  0.000  0.010
    2  0.000  0.000  0.005  0.005  0.000  0.000  0.000  0.000  0.000  0.010
tot    0.000  0.000  0.010  0.010  0.000  0.000  0.000  0.000  0.000  0.021
 
band    18 # energy   29.19199614 # occ.  0.00000000
 
ion      s     py     pz     px    dxy    dyz    dz2    dxz  x2-y2    tot
    1  0.000  0.007  0.002  0.002  0.000  0.000  0.000  0.000  0.000  0.010
    2  0.000  0.007  0.002  0.002  0.000  0.000  0.000  0.000  0.000  0.010
tot    0.000  0.014  0.003  0.004  0.000  0.000  0.000  0.000  0.000  0.021
 
band    19 # energy   30.32501737 # occ.  0.00000000
 
ion      s     py     pz     px    dxy    dyz    dz2    dxz  x2-y2    tot
    1  0.000  0.000  0.000  0.000  0.000  0.000  0.000  0.000  0.000  0.000
    2  0.000  0.000  0.000  0.000  0.000  0.000  0.000  0.000  0.000  0.000
tot    0.000  0.000  0.000  0.000  0.000  0.000  0.000  0.000  0.000  0.000
 
band    20 # energy   30.32501737 # occ.  0.00000000
 
ion      s     py     pz     px    dxy    dyz    dz2    dxz  x2-y2    tot
    1  0.000  0.000  0.000  0.000  0.000  0.000  0.000  0.000  0.000  0.000
    2  0.000  0.000  0.000  0.000  0.000  0.000  0.000  0.000  0.000  0.000
tot    0.000  0.000  0.000  0.000  0.000  0.000  0.000  0.000  0.000  0.000
 
band    21 # energy   31.72432431 # occ.  0.00000000
 
ion      s     py     pz     px    dxy    dyz    dz2    dxz  x2-y2    tot
    1  0.000  0.077  0.077  0.077  0.000  0.000  0.000  0.000  0.000  0.231
    2  0.000  0.077  0.077  0.077  0.000  0.000  0.000  0.000  0.000  0.231
tot    0.000  0.154  0.154  0.154  0.000  0.000  0.000  0.000  0.000  0.462
 
band    22 # energy   31.72437703 # occ.  0.00000000
 
ion      s     py     pz     px    dxy    dyz    dz2    dxz  x2-y2    tot
    1  0.000  0.000  0.115  0.116  0.000  0.000  0.000  0.000  0.000  0.231
    2  0.000  0.000  0.115  0.116  0.000  0.000  0.000  0.000  0.000  0.231
tot    0.000  0.000  0.231  0.231  0.000  0.000  0.000  0.000  0.000  0.462
 
band    23 # energy   31.72437703 # occ.  0.00000000
 
ion      s     py     pz     px    dxy    dyz    dz2    dxz  x2-y2    tot
    1  0.000  0.154  0.039  0.038  0.000  0.000  0.000  0.000  0.000  0.231
    2  0.000  0.154  0.039  0.038  0.000  0.000  0.000  0.000  0.000  0.231
tot    0.000  0.308  0.077  0.077  0.000  0.000  0.000  0.000  0.000  0.462
 
band    24 # energy   35.07837902 # occ.  0.00000000
 
ion      s     py     pz     px    dxy    dyz    dz2    dxz  x2-y2    tot
    1  0.000  0.000  0.000  0.000  0.000  0.000  0.000  0.000  0.000  0.000
    2  0.000  0.000  0.000  0.000  0.000  0.000  0.000  0.000  0.000  0.000
tot    0.000  0.000  0.000  0.000  0.000  0.000  0.000  0.000  0.000  0.000
 
band    25 # energy   35.07837902 # occ.  0.00000000
 
ion      s     py     pz     px    dxy    dyz    dz2    dxz  x2-y2    tot
    1  0.000  0.000  0.000  0.000  0.000  0.000  0.000  0.000  0.000  0.000
    2  0.000  0.000  0.000  0.000  0.000  0.000  0.000  0.000  0.000  0.000
tot    0.000  0.000  0.000  0.000  0.000  0.000  0.000  0.000  0.000  0.000
 
band    26 # energy   35.07844735 # occ.  0.00000000
 
ion      s     py     pz     px    dxy    dyz    dz2    dxz  x2-y2    tot
    1  0.000  0.000  0.000  0.000  0.000  0.000  0.000  0.000  0.000  0.000
    2  0.000  0.000  0.000  0.000  0.000  0.000  0.000  0.000  0.000  0.000
tot    0.000  0.000  0.000  0.000  0.000  0.000  0.000  0.000  0.000  0.000
 
band    27 # energy   41.13099264 # occ.  0.00000000
 
ion      s     py     pz     px    dxy    dyz    dz2    dxz  x2-y2    tot
    1  0.000  0.001  0.001  0.001  0.000  0.000  0.000  0.000  0.000  0.004
    2  0.000  0.001  0.001  0.001  0.000  0.000  0.000  0.000  0.000  0.004
tot    0.000  0.003  0.003  0.003  0.000  0.000  0.000  0.000  0.000  0.009
 
band    28 # energy   41.13114448 # occ.  0.00000000
 
ion      s     py     pz     px    dxy    dyz    dz2    dxz  x2-y2    tot
    1  0.000  0.000  0.002  0.002  0.000  0.000  0.000  0.000  0.000  0.004
    2  0.000  0.000  0.002  0.002  0.000  0.000  0.000  0.000  0.000  0.004
tot    0.000  0.000  0.004  0.005  0.000  0.000  0.000  0.000  0.000  0.009
 
band    29 # energy   41.13114449 # occ.  0.00000000
 
ion      s     py     pz     px    dxy    dyz    dz2    dxz  x2-y2    tot
    1  0.000  0.003  0.001  0.000  0.000  0.000  0.000  0.000  0.000  0.004
    2  0.000  0.003  0.001  0.000  0.000  0.000  0.000  0.000  0.000  0.004
tot    0.000  0.006  0.002  0.001  0.000  0.000  0.000  0.000  0.000  0.009
 
band    30 # energy   44.17507478 # occ.  0.00000000
 
ion      s     py     pz     px    dxy    dyz    dz2    dxz  x2-y2    tot
    1  0.093  0.000  0.000  0.000  0.000  0.000  0.000  0.000  0.000  0.093
    2  0.093  0.000  0.000  0.000  0.000  0.000  0.000  0.000  0.000  0.093
tot    0.186  0.000  0.000  0.000  0.000  0.000  0.000  0.000  0.000  0.186
 
band    31 # energy   44.98420570 # occ.  0.00000000
 
ion      s     py     pz     px    dxy    dyz    dz2    dxz  x2-y2    tot
    1  0.000  0.000  0.000  0.000  0.000  0.000  0.000  0.000  0.000  0.000
    2  0.000  0.000  0.000  0.000  0.000  0.000  0.000  0.000  0.000  0.000
tot    0.000  0.000  0.000  0.000  0.000  0.000  0.000  0.000  0.000  0.000
 
band    32 # energy   44.98420572 # occ.  0.00000000
 
ion      s     py     pz     px    dxy    dyz    dz2    dxz  x2-y2    tot
    1  0.000  0.000  0.000  0.000  0.000  0.000  0.000  0.000  0.000  0.000
    2  0.000  0.000  0.000  0.000  0.000  0.000  0.000  0.000  0.000  0.000
tot    0.000  0.000  0.000  0.000  0.000  0.000  0.000  0.000  0.000  0.000
 
band    33 # energy   46.66804594 # occ.  0.00000000
 
ion      s     py     pz     px    dxy    dyz    dz2    dxz  x2-y2    tot
    1  0.000  0.000  0.000  0.000  0.000  0.000  0.000  0.000  0.000  0.000
    2  0.000  0.000  0.000  0.000  0.000  0.000  0.000  0.000  0.000  0.000
tot    0.000  0.000  0.000  0.000  0.000  0.000  0.000  0.000  0.000  0.000
 
band    34 # energy   46.66804811 # occ.  0.00000000
 
ion      s     py     pz     px    dxy    dyz    dz2    dxz  x2-y2    tot
    1  0.000  0.000  0.000  0.000  0.000  0.000  0.000  0.000  0.000  0.000
    2  0.000  0.000  0.000  0.000  0.000  0.000  0.000  0.000  0.000  0.000
tot    0.000  0.000  0.000  0.000  0.000  0.000  0.000  0.000  0.000  0.000
 
band    35 # energy   48.14294844 # occ.  0.00000000
 
ion      s     py     pz     px    dxy    dyz    dz2    dxz  x2-y2    tot
    1  0.000  0.046  0.046  0.046  0.000  0.000  0.000  0.000  0.000  0.138
    2  0.000  0.046  0.046  0.046  0.000  0.000  0.000  0.000  0.000  0.138
tot    0.000  0.092  0.092  0.092  0.000  0.000  0.000  0.000  0.000  0.275
 
band    36 # energy   48.14299119 # occ.  0.00000000
 
ion      s     py     pz     px    dxy    dyz    dz2    dxz  x2-y2    tot
    1  0.000  0.028  0.086  0.023  0.000  0.000  0.000  0.000  0.000  0.138
    2  0.000  0.028  0.086  0.023  0.000  0.000  0.000  0.000  0.000  0.138
tot    0.000  0.056  0.172  0.047  0.000  0.000  0.000  0.000  0.000  0.275
 

 k-point     2 :    0.04761905 0.00000000 0.00000000     weight = 0.00086384

band     1 # energy   -6.10255109 # occ.  2.00000000
 
ion      s     py     pz     px    dxy    dyz    dz2    dxz  x2-y2    tot
    1  0.215  0.000  0.000  0.000  0.000  0.000  0.000  0.000  0.000  0.215
    2  0.215  0.000  0.000  0.000  0.000  0.000  0.000  0.000  0.000  0.215
tot    0.429  0.000  0.000  0.000  0.000  0.000  0.000  0.000  0.000  0.430
 
band     2 # energy    5.50956063 # occ.  2.00000000
 
ion      s     py     pz     px    dxy    dyz    dz2    dxz  x2-y2    tot
    1  0.020  0.067  0.067  0.067  0.000  0.000  0.000  0.000  0.000  0.221
    2  0.020  0.067  0.067  0.067  0.000  0.000  0.000  0.000  0.000  0.221
tot    0.039  0.134  0.134  0.134  0.000  0.000  0.000  0.000  0.000  0.442
 
band     3 # energy    5.78824382 # occ.  2.00000000
 
ion      s     py     pz     px    dxy    dyz    dz2    dxz  x2-y2    tot
    1  0.000  0.036  0.146  0.036  0.000  0.000  0.000  0.000  0.000  0.219
    2  0.000  0.036  0.146  0.036  0.000  0.000  0.000  0.000  0.000  0.219
tot    0.000  0.073  0.292  0.073  0.000  0.000  0.000  0.000  0.000  0.437
 
band     4 # energy    5.78825758 # occ.  2.00000000
 
ion      s     py     pz     px    dxy    dyz    dz2    dxz  x2-y2    tot
    1  0.000  0.109  0.000  0.109  0.000  0.000  0.000  0.000  0.000  0.219
    2  0.000  0.109  0.000  0.109  0.000  0.000  0.000  0.000  0.000  0.219
tot    0.000  0.219  0.000  0.219  0.000  0.000  0.000  0.000  0.000  0.437
 
band     5 # energy    8.46290976 # occ.  0.00000000
 
ion      s     py     pz     px    dxy    dyz    dz2    dxz  x2-y2    tot
    1  0.020  0.048  0.048  0.048  0.000  0.000  0.000  0.000  0.000  0.163
    2  0.020  0.048  0.048  0.048  0.000  0.000  0.000  0.000  0.000  0.163
tot    0.040  0.096  0.096  0.096  0.000  0.000  0.000  0.000  0.000  0.327
 
band     6 # energy    8.47916342 # occ.  0.00000000
 
ion      s     py     pz     px    dxy    dyz    dz2    dxz  x2-y2    tot
    1  0.000  0.026  0.103  0.026  0.000  0.000  0.000  0.000  0.000  0.155
    2  0.000  0.026  0.103  0.026  0.000  0.000  0.000  0.000  0.000  0.155
tot    0.000  0.052  0.207  0.052  0.000  0.000  0.000  0.000  0.000  0.310
 
band     7 # energy    8.47917849 # occ.  0.00000000
 
ion      s     py     pz     px    dxy    dyz    dz2    dxz  x2-y2    tot
    1  0.000  0.077  0.000  0.077  0.000  0.000  0.000  0.000  0.000  0.155
    2  0.000  0.077  0.000  0.077  0.000  0.000  0.000  0.000  0.000  0.155
tot    0.000  0.155  0.000  0.155  0.000  0.000  0.000  0.000  0.000  0.310
 
band     8 # energy    9.41753741 # occ.  0.00000000
 
ion      s     py     pz     px    dxy    dyz    dz2    dxz  x2-y2    tot
    1  0.324  0.008  0.008  0.008  0.000  0.000  0.000  0.000  0.000  0.348
    2  0.324  0.008  0.008  0.008  0.000  0.000  0.000  0.000  0.000  0.348
tot    0.648  0.016  0.016  0.016  0.000  0.000  0.000  0.000  0.000  0.696
 
band     9 # energy   13.52086635 # occ.  0.00000000
 
ion      s     py     pz     px    dxy    dyz    dz2    dxz  x2-y2    tot
    1  0.000  0.000  0.000  0.000  0.000  0.000  0.000  0.000  0.000  0.001
    2  0.000  0.000  0.000  0.000  0.000  0.000  0.000  0.000  0.000  0.001
tot    0.000  0.001  0.000  0.001  0.000  0.000  0.000  0.000  0.000  0.001
 
band    10 # energy   13.52086690 # occ.  0.00000000
 
ion      s     py     pz     px    dxy    dyz    dz2    dxz  x2-y2    tot
    1  0.000  0.000  0.000  0.000  0.000  0.000  0.000  0.000  0.000  0.001
    2  0.000  0.000  0.000  0.000  0.000  0.000  0.000  0.000  0.000  0.001
tot    0.000  0.000  0.001  0.000  0.000  0.000  0.000  0.000  0.000  0.001
 
band    11 # energy   13.91683717 # occ.  0.00000000
 
ion      s     py     pz     px    dxy    dyz    dz2    dxz  x2-y2    tot
    1  0.099  0.002  0.002  0.002  0.000  0.000  0.000  0.000  0.000  0.104
    2  0.099  0.002  0.002  0.002  0.000  0.000  0.000  0.000  0.000  0.104
tot    0.197  0.004  0.004  0.004  0.000  0.000  0.000  0.000  0.000  0.209
 
band    12 # energy   16.98934619 # occ.  0.00000000
 
ion      s     py     pz     px    dxy    dyz    dz2    dxz  x2-y2    tot
    1  0.003  0.012  0.012  0.012  0.000  0.000  0.000  0.000  0.000  0.039
    2  0.003  0.012  0.012  0.012  0.000  0.000  0.000  0.000  0.000  0.039
tot    0.006  0.024  0.024  0.024  0.000  0.000  0.000  0.000  0.000  0.079
 
band    13 # energy   17.31300707 # occ.  0.00000000
 
ion      s     py     pz     px    dxy    dyz    dz2    dxz  x2-y2    tot
    1  0.000  0.006  0.026  0.006  0.000  0.000  0.000  0.000  0.000  0.039
    2  0.000  0.006  0.026  0.006  0.000  0.000  0.000  0.000  0.000  0.039
tot    0.000  0.013  0.052  0.013  0.000  0.000  0.000  0.000  0.000  0.078
 
band    14 # energy   17.31301244 # occ.  0.00000000
 
ion      s     py     pz     px    dxy    dyz    dz2    dxz  x2-y2    tot
    1  0.000  0.019  0.000  0.019  0.000  0.000  0.000  0.000  0.000  0.039
    2  0.000  0.019  0.000  0.019  0.000  0.000  0.000  0.000  0.000  0.039
tot    0.000  0.039  0.000  0.039  0.000  0.000  0.000  0.000  0.000  0.078
 
band    15 # energy   21.44301135 # occ.  0.00000000
 
ion      s     py     pz     px    dxy    dyz    dz2    dxz  x2-y2    tot
    1  0.037  0.001  0.001  0.001  0.000  0.000  0.000  0.000  0.000  0.040
    2  0.037  0.001  0.001  0.001  0.000  0.000  0.000  0.000  0.000  0.040
tot    0.074  0.002  0.002  0.002  0.000  0.000  0.000  0.000  0.000  0.080
 
band    16 # energy   28.79110859 # occ.  0.00000000
 
ion      s     py     pz     px    dxy    dyz    dz2    dxz  x2-y2    tot
    1  0.000  0.015  0.015  0.015  0.000  0.000  0.000  0.000  0.000  0.045
    2  0.000  0.015  0.015  0.015  0.000  0.000  0.000  0.000  0.000  0.045
tot    0.001  0.030  0.030  0.030  0.000  0.000  0.000  0.000  0.000  0.090
 
band    17 # energy   28.85860521 # occ.  0.00000000
 
ion      s     py     pz     px    dxy    dyz    dz2    dxz  x2-y2    tot
    1  0.000  0.011  0.000  0.011  0.000  0.000  0.000  0.000  0.000  0.022
    2  0.000  0.011  0.000  0.011  0.000  0.000  0.000  0.000  0.000  0.022
tot    0.000  0.022  0.000  0.022  0.000  0.000  0.000  0.000  0.000  0.044
 
band    18 # energy   28.85867954 # occ.  0.00000000
 
ion      s     py     pz     px    dxy    dyz    dz2    dxz  x2-y2    tot
    1  0.000  0.004  0.015  0.004  0.000  0.000  0.000  0.000  0.000  0.022
    2  0.000  0.004  0.015  0.004  0.000  0.000  0.000  0.000  0.000  0.022
tot    0.000  0.007  0.029  0.007  0.000  0.000  0.000  0.000  0.000  0.044
 
band    19 # energy   30.09492420 # occ.  0.00000000
 
ion      s     py     pz     px    dxy    dyz    dz2    dxz  x2-y2    tot
    1  0.000  0.002  0.007  0.002  0.000  0.000  0.000  0.000  0.000  0.011
    2  0.000  0.002  0.007  0.002  0.000  0.000  0.000  0.000  0.000  0.011
tot    0.000  0.004  0.015  0.004  0.000  0.000  0.000  0.000  0.000  0.022
 
band    20 # energy   30.09506046 # occ.  0.00000000
 
ion      s     py     pz     px    dxy    dyz    dz2    dxz  x2-y2    tot
    1  0.000  0.005  0.000  0.005  0.000  0.000  0.000  0.000  0.000  0.011
    2  0.000  0.005  0.000  0.005  0.000  0.000  0.000  0.000  0.000  0.011
tot    0.000  0.011  0.000  0.011  0.000  0.000  0.000  0.000  0.000  0.022
 
band    21 # energy   31.92443101 # occ.  0.00000000
 
ion      s     py     pz     px    dxy    dyz    dz2    dxz  x2-y2    tot
    1  0.000  0.034  0.138  0.035  0.000  0.000  0.000  0.000  0.000  0.207
    2  0.000  0.034  0.138  0.035  0.000  0.000  0.000  0.000  0.000  0.207
tot    0.000  0.069  0.276  0.069  0.000  0.000  0.000  0.000  0.000  0.414
 
band    22 # energy   31.92445468 # occ.  0.00000000
 
ion      s     py     pz     px    dxy    dyz    dz2    dxz  x2-y2    tot
    1  0.000  0.104  0.000  0.104  0.000  0.000  0.000  0.000  0.000  0.207
    2  0.000  0.104  0.000  0.104  0.000  0.000  0.000  0.000  0.000  0.207
tot    0.000  0.207  0.000  0.207  0.000  0.000  0.000  0.000  0.000  0.414
 
band    23 # energy   32.06734630 # occ.  0.00000000
 
ion      s     py     pz     px    dxy    dyz    dz2    dxz  x2-y2    tot
    1  0.003  0.064  0.064  0.064  0.000  0.000  0.000  0.000  0.000  0.195
    2  0.003  0.064  0.064  0.064  0.000  0.000  0.000  0.000  0.000  0.195
tot    0.006  0.128  0.128  0.128  0.000  0.000  0.000  0.000  0.000  0.390
 
band    24 # energy   35.10560712 # occ.  0.00000000
 
ion      s     py     pz     px    dxy    dyz    dz2    dxz  x2-y2    tot
    1  0.000  0.000  0.000  0.000  0.000  0.000  0.000  0.000  0.000  0.000
    2  0.000  0.000  0.000  0.000  0.000  0.000  0.000  0.000  0.000  0.000
tot    0.000  0.000  0.000  0.000  0.000  0.000  0.000  0.000  0.000  0.000
 
band    25 # energy   35.50630807 # occ.  0.00000000
 
ion      s     py     pz     px    dxy    dyz    dz2    dxz  x2-y2    tot
    1  0.000  0.000  0.001  0.000  0.000  0.000  0.000  0.000  0.000  0.001
    2  0.000  0.000  0.001  0.000  0.000  0.000  0.000  0.000  0.000  0.001
tot    0.000  0.000  0.001  0.000  0.000  0.000  0.000  0.000  0.000  0.002
 
band    26 # energy   35.50634086 # occ.  0.00000000
 
ion      s     py     pz     px    dxy    dyz    dz2    dxz  x2-y2    tot
    1  0.000  0.000  0.000  0.000  0.000  0.000  0.000  0.000  0.000  0.001
    2  0.000  0.000  0.000  0.000  0.000  0.000  0.000  0.000  0.000  0.001
tot    0.000  0.001  0.000  0.001  0.000  0.000  0.000  0.000  0.000  0.002
 
band    27 # energy   40.65167476 # occ.  0.00000000
 
ion      s     py     pz     px    dxy    dyz    dz2    dxz  x2-y2    tot
    1  0.002  0.003  0.003  0.003  0.000  0.000  0.000  0.000  0.000  0.011
    2  0.002  0.003  0.003  0.003  0.000  0.000  0.000  0.000  0.000  0.011
tot    0.004  0.006  0.006  0.006  0.000  0.000  0.000  0.000  0.000  0.022
 
band    28 # energy   41.04078585 # occ.  0.00000000
 
ion      s     py     pz     px    dxy    dyz    dz2    dxz  x2-y2    tot
    1  0.000  0.001  0.004  0.001  0.000  0.000  0.000  0.000  0.000  0.006
    2  0.000  0.001  0.004  0.001  0.000  0.000  0.000  0.000  0.000  0.006
tot    0.000  0.002  0.008  0.002  0.000  0.000  0.000  0.000  0.000  0.013
 
band    29 # energy   41.04091048 # occ.  0.00000000
 
ion      s     py     pz     px    dxy    dyz    dz2    dxz  x2-y2    tot
    1  0.000  0.003  0.000  0.003  0.000  0.000  0.000  0.000  0.000  0.006
    2  0.000  0.003  0.000  0.003  0.000  0.000  0.000  0.000  0.000  0.006
tot    0.000  0.006  0.000  0.006  0.000  0.000  0.000  0.000  0.000  0.013
 
band    30 # energy   44.32623676 # occ.  0.00000000
 
ion      s     py     pz     px    dxy    dyz    dz2    dxz  x2-y2    tot
    1  0.087  0.002  0.002  0.002  0.000  0.000  0.000  0.000  0.000  0.094
    2  0.087  0.002  0.002  0.002  0.000  0.000  0.000  0.000  0.000  0.094
tot    0.173  0.005  0.005  0.005  0.000  0.000  0.000  0.000  0.000  0.187
 
band    31 # energy   44.65642283 # occ.  0.00000000
 
ion      s     py     pz     px    dxy    dyz    dz2    dxz  x2-y2    tot
    1  0.000  0.001  0.003  0.001  0.000  0.000  0.000  0.000  0.000  0.005
    2  0.000  0.001  0.003  0.001  0.000  0.000  0.000  0.000  0.000  0.005
tot    0.000  0.002  0.007  0.002  0.000  0.000  0.000  0.000  0.000  0.010
 
band    32 # energy   44.65644515 # occ.  0.00000000
 
ion      s     py     pz     px    dxy    dyz    dz2    dxz  x2-y2    tot
    1  0.000  0.003  0.000  0.003  0.000  0.000  0.000  0.000  0.000  0.005
    2  0.000  0.003  0.000  0.003  0.000  0.000  0.000  0.000  0.000  0.005
tot    0.000  0.005  0.000  0.005  0.000  0.000  0.000  0.000  0.000  0.010
 
band    33 # energy   46.21030038 # occ.  0.00000000
 
ion      s     py     pz     px    dxy    dyz    dz2    dxz  x2-y2    tot
    1  0.000  0.003  0.000  0.003  0.000  0.000  0.000  0.000  0.000  0.006
    2  0.000  0.003  0.000  0.003  0.000  0.000  0.000  0.000  0.000  0.006
tot    0.000  0.006  0.000  0.006  0.000  0.000  0.000  0.000  0.000  0.011
 
band    34 # energy   46.21030086 # occ.  0.00000000
 
ion      s     py     pz     px    dxy    dyz    dz2    dxz  x2-y2    tot
    1  0.000  0.001  0.004  0.001  0.000  0.000  0.000  0.000  0.000  0.006
    2  0.000  0.001  0.004  0.001  0.000  0.000  0.000  0.000  0.000  0.006
tot    0.000  0.002  0.008  0.002  0.000  0.000  0.000  0.000  0.000  0.011
 
band    35 # energy   48.13978882 # occ.  0.00000000
 
ion      s     py     pz     px    dxy    dyz    dz2    dxz  x2-y2    tot
    1  0.000  0.014  0.079  0.026  0.000  0.000  0.000  0.000  0.000  0.118
    2  0.000  0.014  0.079  0.026  0.000  0.000  0.000  0.000  0.000  0.118
tot    0.000  0.027  0.157  0.053  0.000  0.000  0.000  0.000  0.000  0.237
 
band    36 # energy   48.13983774 # occ.  0.00000000
 
ion      s     py     pz     px    dxy    dyz    dz2    dxz  x2-y2    tot
    1  0.000  0.065  0.001  0.053  0.000  0.000  0.000  0.000  0.000  0.118
    2  0.000  0.065  0.001  0.053  0.000  0.000  0.000  0.000  0.000  0.118
tot    0.000  0.129  0.001  0.106  0.000  0.000  0.000  0.000  0.000  0.237
 

 k-point     3 :    0.09523810 0.00000000 0.00000000     weight = 0.00086384

band     1 # energy   -6.01351605 # occ.  2.00000000
 
ion      s     py     pz     px    dxy    dyz    dz2    dxz  x2-y2    tot
    1  0.214  0.000  0.000  0.000  0.000  0.000  0.000  0.000  0.000  0.216
    2  0.214  0.000  0.000  0.000  0.000  0.000  0.000  0.000  0.000  0.216
tot    0.428  0.001  0.001  0.001  0.000  0.000  0.000  0.000  0.000  0.431
 
band     2 # energy    4.77412201 # occ.  2.00000000
 
ion      s     py     pz     px    dxy    dyz    dz2    dxz  x2-y2    tot
    1  0.048  0.058  0.058  0.058  0.000  0.000  0.000  0.000  0.000  0.223
    2  0.048  0.058  0.058  0.058  0.000  0.000  0.000  0.000  0.000  0.223
tot    0.096  0.117  0.117  0.117  0.000  0.000  0.000  0.000  0.000  0.446
 
band     3 # energy    5.65583981 # occ.  2.00000000
 
ion      s     py     pz     px    dxy    dyz    dz2    dxz  x2-y2    tot
    1  0.000  0.036  0.145  0.036  0.000  0.000  0.000  0.000  0.000  0.217
    2  0.000  0.036  0.145  0.036  0.000  0.000  0.000  0.000  0.000  0.217
tot    0.000  0.072  0.290  0.072  0.000  0.000  0.000  0.000  0.000  0.435
 
band     4 # energy    5.65585369 # occ.  2.00000000
 
ion      s     py     pz     px    dxy    dyz    dz2    dxz  x2-y2    tot
    1  0.000  0.109  0.000  0.109  0.000  0.000  0.000  0.000  0.000  0.217
    2  0.000  0.109  0.000  0.109  0.000  0.000  0.000  0.000  0.000  0.217
tot    0.000  0.217  0.000  0.217  0.000  0.000  0.000  0.000  0.000  0.435
 
band     5 # energy    8.42614056 # occ.  0.00000000
 
ion      s     py     pz     px    dxy    dyz    dz2    dxz  x2-y2    tot
    1  0.078  0.037  0.037  0.037  0.000  0.000  0.000  0.000  0.000  0.188
    2  0.078  0.037  0.037  0.037  0.000  0.000  0.000  0.000  0.000  0.188
tot    0.155  0.073  0.073  0.073  0.000  0.000  0.000  0.000  0.000  0.375
 
band     6 # energy    8.67439433 # occ.  0.00000000
 
ion      s     py     pz     px    dxy    dyz    dz2    dxz  x2-y2    tot
    1  0.000  0.026  0.104  0.026  0.000  0.000  0.000  0.000  0.000  0.157
    2  0.000  0.026  0.104  0.026  0.000  0.000  0.000  0.000  0.000  0.157
tot    0.000  0.052  0.209  0.052  0.000  0.000  0.000  0.000  0.000  0.313
 
band     7 # energy    8.67441073 # occ.  0.00000000
 
ion      s     py     pz     px    dxy    dyz    dz2    dxz  x2-y2    tot
    1  0.000  0.078  0.000  0.078  0.000  0.000  0.000  0.000  0.000  0.157
    2  0.000  0.078  0.000  0.078  0.000  0.000  0.000  0.000  0.000  0.157
tot    0.000  0.157  0.000  0.157  0.000  0.000  0.000  0.000  0.000  0.313
 
band     8 # energy   10.04776419 # occ.  0.00000000
 
ion      s     py     pz     px    dxy    dyz    dz2    dxz  x2-y2    tot
    1  0.243  0.025  0.025  0.025  0.000  0.000  0.000  0.000  0.000  0.317
    2  0.243  0.025  0.025  0.025  0.000  0.000  0.000  0.000  0.000  0.317
tot    0.487  0.049  0.049  0.049  0.000  0.000  0.000  0.000  0.000  0.634
 
band     9 # energy   13.28625882 # occ.  0.00000000
 
ion      s     py     pz     px    dxy    dyz    dz2    dxz  x2-y2    tot
    1  0.000  0.001  0.000  0.001  0.000  0.000  0.000  0.000  0.000  0.001
    2  0.000  0.001  0.000  0.001  0.000  0.000  0.000  0.000  0.000  0.001
tot    0.000  0.001  0.000  0.001  0.000  0.000  0.000  0.000  0.000  0.003
 
band    10 # energy   13.28626117 # occ.  0.00000000
 
ion      s     py     pz     px    dxy    dyz    dz2    dxz  x2-y2    tot
    1  0.000  0.000  0.001  0.000  0.000  0.000  0.000  0.000  0.000  0.001
    2  0.000  0.000  0.001  0.000  0.000  0.000  0.000  0.000  0.000  0.001
tot    0.000  0.000  0.002  0.000  0.000  0.000  0.000  0.000  0.000  0.003
 
band    11 # energy   14.27884584 # occ.  0.00000000
 
ion      s     py     pz     px    dxy    dyz    dz2    dxz  x2-y2    tot
    1  0.088  0.007  0.007  0.007  0.000  0.000  0.000  0.000  0.000  0.109